/*--------------------------------*- C++ -*----------------------------------*\
| =========                 |                                                 |
| \\      /  F ield         | OpenFOAM: The Open Source CFD Toolbox           |
|  \\    /   O peration     | Version:  v1906                                 |
|   \\  /    A nd           | Web:      www.OpenFOAM.com                      |
|    \\/     M anipulation  |                                                 |
\*---------------------------------------------------------------------------*/
FoamFile
{
    version     2.0;
    format      ascii;
    class       surfaceScalarField;
    location    "1.7";
    object      phi;
}
// * * * * * * * * * * * * * * * * * * * * * * * * * * * * * * * * * * * * * //

dimensions      [0 3 -1 0 0 0 0];
oriented        oriented;


internalField   nonuniform List<scalar> 
37503
(
-7.351456262084416
-10.97513803915993
26.06698386934356
-7.740389567641988
-17.4667591838767
4.304007628797615
21.31399699780035
-0.01654269944425145
-0.5383137742241858
0.808239011728042
-0.2533825380728688
-0.08774054593816726
0.1138112314674866
-0.002786861081246616
-0.02328382447780655
12.39283943251413
7.199532109016687
0.6032844430768023
-0.02172731784378399
-0.08437486676847468
-0.4971822585123231
0.08577174094471238
-1.620762290269565
1.576048698409121
-0.04105814920918237
-0.9482711543974308
14.89049030878467
-13.94221915428988
-8.049956066880707
-5.638738745692661
-7.683650080595703
21.37234489351483
1.793351600295829
-3.139334203453322
1.481738349328073
-0.1357557462921473
1.497049334796861
0.1755202742417425
0.4072017305519098
-2.079771339522575
1.709635751053975
2.116896705047807
-2.729364519275731
-1.097167936574434
-0.02057394873690046
0.00195182618520662
-0.02361533640840468
0.04223745891900196
1.104498440765908
-3.573504172860808
-1.003763137283813
3.472768869834371
-0.8942869692900804
1.962482867723332
-2.772325179860585
1.704129281713037
4.408383721697844
10.54730694889481
4.500885268226636
-0.008502543271562742
-0.1577736366471706
0.1353034694594887
0.03097271038474704
2.079460971186127
-4.628164363951186
-1.995344937308769
4.544048330462374
-0.3626797087257636
-1.251501146197234
-18.47651109925054
10.75451282753234
20.82930008904588
-6.469956991141112
14.09141301275711
-8.02045373057404
6.876268382020021
-7.673001999538529
8.817187348247279
20.21464478587684
-25.51661549773436
12.0130586947493
-0.04122499100035792
0.4472812892934822
0.01282115951223728
-0.4188774578370599
-0.4505337541125303
-2.177380816927172
3.732413012075337
1.405164034155897
-2.679775218240842
0.3803242149923105
-1.447314041055919
1.933412612725137
2.211583500780756
-2.697682072088387
-10.14013466795846
-9.09939763094004
0.2598332942807605
-0.2522690555131019
-0.04437373979424873
0.03680950092492413
-2.296610631291573
0.4327422096188222
13.22429719122279
-16.23442612746991
-23.79850095595883
26.80862989184774
-0.152535268328182
0.1229934154547314
0.07813851276299669
-0.0485966599494301
13.7415774425943
10.04363779682045
-18.67845941114892
-1.542578365056202
-1.013850949190172
2.105895560480264
0.2245476636416907
-0.01822439964624764
0.2089562819555669
-0.4152795460368476
1.344679922351326
-1.120910976964269
0.4737130354125247
-2.034133221059502
2.681331162907647
21.54651860588445
4.699803763570935
-4.336140353829533
-21.91018201523081
0.04918296986842347
-0.3114472532154301
0.1215285717480976
0.1407357115106429
0.3109018811530542
-0.6109459875017839
-2.171991335794503
2.47203544196834
-0.04392618104685247
-0.2224188770369318
0.3558212491758633
-0.08947619116278227
-0.05572033922861681
-0.0410959299871457
-0.005210892679578774
0.1020271618571283
-0.4985071755555858
0.4508060489295941
0.3002222413808754
-0.2525211148330094
-0.05607749009057778
-0.3437217026781442
0.5108867035511049
-0.1110875109295343
3.674810450364883
-2.447413316119545
2.304783770688175
-3.532180904929911
-0.1138925399351861
0.0255485600114467
0.0218597970121732
0.06648418286178635
-0.03349811737538627
-0.08142816322380209
0.02809434148235244
0.086831939058059
-0.02165570733659822
0.1172664187915124
-0.14452588179473
0.04891517029785271
1.969209102579324
-0.9882676536986366
-0.2435807786256188
-0.7373606703007626
-0.6629629557824464
0.1822293288115766
0.325366695589846
0.155366931187793
8.687976995089194
20.99985690726589
-27.14258084322439
-2.54525305909942
-1.265110531190631
-0.08863386775128733
-1.375620120218722
0.4189611850638688
-0.1266461294329241
0.07977160555111823
-0.372086661222211
0.8505250337402127
-2.169526189025498
-0.9776094758179797
-0.2018359476166402
1.510220276706473
-2.086453050931562
0.7780687216823555
-0.1535499185986358
0.2098440422161666
0.001452537051884927
-0.0577466607287821
-0.2320272605093608
0.1182702846168511
0.1665636041798088
-0.05280662836051241
-0.894695625895284
-0.5305146195420236
3.166248293229992
-0.04279848327122217
0.3269588569910089
-0.3212884903583857
0.03712811653687684
-0.008765946859989023
-0.09827335609765372
-0.02123704507242409
0.1282763479563072
0.001157555883382532
0.04864311907164321
-0.07203564384370628
0.02223496884271232
0.009233810140271536
-0.1351944090800736
0.1164739986021377
0.009486600274337644
-0.06676166949501922
0.07002111784185235
-0.03387588140758734
0.03061643303395056
-0.2341824070797764
-0.2332181555955149
0.4602150233547204
0.007185539200660448
-0.1532890833463703
0.09121711375050234
0.08061593421017252
-0.01854396466281262
-0.1106723295627038
-0.004937231197537531
0.09824176308182987
0.01736779763107796
-1.938818416074493
-1.165695552671933
0.05870753141470005
3.045806437727954
-19.94972768090917
19.09707866977332
0.8526490111964835
-0.1360641658132598
0.05005208514441921
0.06537577780343017
0.02063630280708259
17.96417378210043
-14.92560406532988
-15.14791789829602
12.10934818192493
0.07583804360090574
0.031326453742052
-0.08005359356896251
-0.02711090385510597
-0.154083781745538
-0.4945453868825633
0.4388456425747052
0.2097835259645806
0.1271405173630943
-0.5874767579859658
0.4886221315673023
-0.02828589114831159
0.1522877351214148
-0.08399104844842689
-0.06510773664976294
-0.003188950094587702
0.1967368869100277
-0.2176830668929538
-0.1587065098698821
0.1796526897521126
-0.0484410783965105
0.133605042057794
0.1701863679929796
-0.2553503317199872
0.8472798018838863
0.607261325082191
-2.205556553806368
0.7510154267494065
-0.01840932348094119
0.1215368642194199
-0.03462194223421359
-0.06850559856654938
0.05290181724986245
0.002619892608683896
-0.03598780547821901
-0.01953390443748577
0.8261929636145398
0.8448522241189518
-0.04472051470135493
0.01246155636484498
0.03225895831601552
2.773654946631714
-1.609546199624361
0.9392115087130694
-2.103320255795044
0.2219803864425923
-0.0856529835973477
-0.1122802834840518
-0.0240471194502205
0.08481615270043674
-0.02533238950030491
-0.04400935795832754
-0.01547440529186354
-0.08577607453501045
0.4522044711760902
0.4051069510336707
-0.7715353478682795
0.2585371472255646
-0.182970392908101
0.1610483987300929
-0.2366151530846287
0.1119511345559647
-0.1696305137276135
-0.2435511076537338
0.3012304867432644
0.04929851473250933
-0.1137460979193349
-0.01265001549206549
0.07709759864327771
-0.08397887531737652
-0.01073514931726554
0.006973478675499835
-0.07691766106873521
-0.09161688965734344
0.07602829125507111
0.09250625940956367
0.1888556427130072
-0.1112474497796097
0.0213712451018669
-0.09897943805335074
0.8858946773677874
-0.5255566516262216
-0.3825996716840895
0.02226164571971254
0.06907010465919808
-0.202101676918551
0.3790144826017929
-0.2459829104459764
0.2529744985955383
-0.03646969233633297
0.01953421677643665
-0.2360390231093485
-0.06630256460870071
-0.2323113885165866
-0.1921344998742368
0.4907484529708219
-0.02959325737437948
-0.1981456776736009
0.4093060138529238
-0.1815670788654139
-0.1074448957547468
-0.2746570199910934
0.1107452323409761
0.2713566833568598
0.0286946588240568
0.1446061081500572
-0.1960097653543554
0.02270899830279236
-0.1086478423708749
-0.08809624384352462
-0.2495620524198772
0.4463061385849625
-0.2010081130728629
-0.285821571299836
0.3451325162641265
0.1416971680889397
4.791474946278669
-1.484312156084676
0.05010788492141425
-0.05090400340986219
0.0007961184565643002
0.9905203583719938
-2.219802710875233
-1.450492865568733
0.02898554352275424
-0.01987888734637223
-0.009106656198359217
-0.1762729793163477
0.05087048720404864
0.02420256953728142
0.1011999225258088
0.0007496997406302307
-0.06273125687616081
0.1538473643951336
-0.09186580732736872
-2.334039088515876
-0.8145694918632531
2.607396561184852
0.5412120195051812
-0.03224097779565539
-0.08262853964889975
0.1322494739389308
-0.01737995653943031
-0.440893419299688
-1.182001920955184
-0.8618950609799972
2.484790401285467
21.0718940180251
-0.02670611011435034
-0.3505067006351809
2.937265559103652
-3.707669835331708
0.06159135022019788
-0.09411836225406948
-0.03009586634679692
0.06262287834681912
-3.087278803445905
4.880810427330741
-0.1172582545873109
-1.676273369642485
0.09524584358945991
-0.04578539200215436
-0.2514239931602957
-0.2480789520426575
0.3662518264387107
0.1332511186920804
0.182118879948404
-0.09447463453115362
-0.0271541156771118
-0.06049012978218628
-0.03843350408544438
0.2511767130089587
-0.2427412180283577
0.02999800898208079
0.180046979994054
-0.2877436818056164
0.3055334232149958
-0.1978367214893917
0.03314036662071583
-0.01421874299555977
-0.04545076970155172
0.02652914605083148
20.17708680765249
-18.67809954318557
-0.3936079346987478
26.64835438275616
-27.20301760227677
-3.345889121778716
0.166205705204016
3.874334871533057
-0.6946514546650545
-2.04697396234192
0.3415279312279788
0.9172638545778996
0.7881821765355685
-8.020245528225409
-4.569993767830067
6.864174345973349
5.726064949322007
-27.47411938004235
-23.46116568990961
50.4131936899295
0.7768737404200403
1.562070831447289
1.393468440444114
18.45117563002142
-10.79452320869838
-7.656652421358971
1.200726761114231
-2.362980911047298
-0.06762587626317411
-1.714178945217324
1.152914112389555
2.322843707975832
-31.43658995478511
-0.9815720431351893
2.073331349911025
30.34483064841613
0.09850805798220554
0.00788919687426551
-0.1182952394862017
0.01189798455945082
-0.1744731451928251
0.06287900878273821
0.1115941363693287
-0.09502659853171877
0.04894051576022831
0.1000089274007295
-0.05392284468386341
0.5384977588753129
1.433966576134682
0.534534441365152
-2.506998775981381
-0.6121180389060035
0.2114915631064383
-1.775282456339695
3.09952052573511
1.871549408940437
0.7392735938522687
-3.371835612171969
0.761012609228261
-1.87592850716127
1.901819119087665
-3.14986937439096
3.123978762946601
-0.3782684474276107
0.1800035558953373
-1.915712725114432
1.637940550397389
-9.893294664358168
-9.024445908875039
-0.0546838767488594
-0.1509483976928993
0.1149384562946555
0.0906938180937001
0.1181461582487081
-0.3434294954871277
-0.3573793051290077
0.5826626422207717
-0.5197619778348214
0.3610219980365406
0.1195237713363994
0.03921620827430747
0.4591903975895018
0.213550765116771
-0.8255715454488439
0.1528303826433962
-0.3584334652655732
0.4849277603040238
2.222459564952997
-0.13805001113333
0.04759306847520325
0.01417886175030891
0.07627808088914503
0.008838114416373402
0.0267885826371621
-0.1187496167894239
0.08312291970748677
3.135676090644078
-1.077718419437733
-2.589784496259914
-1.155522466209182
0.5658215996518107
4.740045619781855
5.600591478999124
-10.90645869827519
0.2198288813877585
-0.7616454255473598
0.4624980891721078
0.2991473363508582
0.07690930808063896
-0.2775731927477079
-0.2132219429498143
0.4138858275293264
-0.6456502785750747
0.2501225682081908
0.5504431381706646
-0.1549154278985813
1.81337449348573
-26.19068289382298
1.679257948032523
2.850151579386016
21.66127336654537
-13.8462546017172
7.723751516736437
6.688324685017697
0.1738941268020554
-0.05825049560174092
-0.1180447103813783
0.002401079136847777
4.892078613216282
5.785999024798748
-27.93971130726031
17.26163366977484
1.651751513906286
-0.7794006714449073
0.2928521763157512
2.674201587168864
-1.766327002144403
4.07644242925349
-1.743284062523705
-2.952506177568452
28.08973713717925
-13.87009945828327
-14.21963767859696
-0.08111825302329022
0.001522637089072058
0.09210975466637369
-0.01251413878041815
2.321790207425462
-3.649906383856334
2.086256090056954
-1.84692336137487
2.697932830673943
2.35406982998242
2.077931305611217
-2.110210927950487
-17.70581964096082
7.383007428268807
-8.847641994440238
4.347280764573727
-1.560468724793223
4.164187395786074
12.87347676220904
-7.962288895900027
-4.321569354272859
-0.5896185123203099
-0.007401566553180967
0.08202246620309928
0.002932292985587754
-0.07755319268820751
-1.296503986671479
-0.7410576710472619
-0.4630634090184751
2.50062506652434
0.3998853677671542
-0.2696917435671464
0.1038874477531731
-0.2340810720362086
0.04572632789528953
-0.06428989818798841
-0.2134636902658607
-8.079239258097408
9.078063216241354
5.212257614341732
-6.21108157240064
2.619782086979161
-1.969715303639581
0.697722912387552
-1.347789696003127
-0.06022156705213346
-9.118549581710905
-1.805173306250067
10.98394445413217
0.2275858539197679
-0.1499065374141954
-0.07767931652585189
0.08179682446399304
-0.1538535536895511
0.07205672917936222
-0.05230109766056707
0.2770794970582591
-0.05164521380708001
-0.1731331856494078
3.681429576092116
-21.71395172304279
-4.100518538558496
22.13304068578887
-0.1475909568987548
0.1008817492014941
0.1524054359508186
-0.1056962283572071
2.636698699510936
-1.269067954716853
-1.808524164026471
0.1772276666183171
-0.09543084218997046
-0.1469901849469352
-0.05698095403713672
0.2298278340141375
-0.02585669512001975
2.913866106620033
-3.516734311830853
-0.0001352947699278281
0.6030034996216018
0.3638370607602397
-0.02341708493971244
-0.02084310244761134
-0.3195768735997193
-0.01473461189095563
0.0151462885905857
0.09003751505881294
-0.09044919181173425
-0.4293004290044529
-0.1113836587603606
0.2630333032408451
0.2776507843781986
-2.299618315825728
-2.134041626570212
-1.4534933340638
5.887153276558787
-0.09174932948873608
-0.1528354051847227
0.1006432684868057
0.1439414661503434
0.06103620819598714
-0.1512434955301816
0.09020728728859713
0.06707937009064235
-0.02113554550981103
-0.08914280761568727
0.04319898297522091
-9.478712197841043
-0.1319040611234256
0.006340982664961032
-0.02036338634151772
0.1459264647346644
0.02132055630906908
0.04520495121088666
-0.06652550757459183
0.03392461546805987
0.05306238312207045
-0.1091181565615519
0.02213115791578217
5.967360599427332
-4.069748820528764
-5.366313370271071
3.468701590949129
1.973027164777603
6.115290624565155
-2.424812717453446
-5.663505072051786
10.2367368167737
-6.593193251955973
-20.78891685869421
17.14537329420106
-0.08362373008327394
0.06865419869682092
-0.08690738495543159
0.1018769162696641
-28.94752444695475
12.86019465542948
-2.389181307674189
0.7230922182081001
-0.3642809190498678
0.7070813399825293
-1.065892639068628
0.7274968636478898
0.1487862059209303
-0.7221763335675891
-0.1541067360806913
7.304668960869593
-0.9920125389803897
2.268529390881923
-8.58118581289567
0.09664134250596031
-0.1237996021315952
-0.334539117912087
0.3616973774690581
16.79964249869754
-13.51116355211335
15.1626966834233
-0.6372532545613357
0.171459813170644
-0.06195599395064266
0.09445461955561056
-0.03249862563465658
0.05661269702120471
0.1271232789967858
-0.1662748938061584
-0.01746108225290045
0.1086907751412445
0.03167398298906509
0.01847610914997874
-0.1588408673743044
-27.22276227596909
14.57591104709174
1.161871301061812
11.48497992837053
0.3244343035766162
0.4332868781007629
-0.3656631180867093
-0.3920580636569042
-12.75327388574346
16.39670589146438
0.1006242743145432
-0.3733433787914811
-0.1237040902491293
0.3964231946015671
-32.22341917364397
9.242262967186894
7.450266840479416
15.53088936619448
-0.1611886181267886
0.03655324376161909
0.05699828676499888
0.06763708753715554
14.93042497585122
0.02682954621235874
-0.05364954983034218
-0.01031420479785591
0.03713420838019652
0.4474359002854712
0.06147044770222902
-0.5504539242673095
0.04154757626797294
1.43248399471359
0.1562956439847826
-1.02153612611496
-0.5672435128098586
-0.02533606909870838
0.4034923442458411
-0.117307416652347
0.05760227019963585
0.1977590140331891
-0.1380538676647217
-0.06781226096337603
-0.1358921309676093
0.01660084202134228
0.1871035498769729
-0.2123873810225931
0.02138163321475211
-0.000481390296711993
0.1914871380312149
0.1332973820486992
-0.03169852087911828
-0.1015988612276021
0.01799270125972138
0.04180769479850512
-0.05980039609820874
9.732892616106591
-14.13756196427405
4.404669348048152
-0.06173756648220957
0.08108946522323326
0.1812934490240198
0.2138127129333286
-0.1376308141345619
-0.004182694761503031
-0.07199920414177563
-0.1028942402992508
-0.2982161589431024
0.8338082695316305
-0.4326978703480741
-0.1638446289708947
-0.3245202898450113
0.1756269167749599
0.3127380018989684
0.2098219728788972
-0.3923958679619268
-0.3695510111706137
0.5521249062133358
13.56514645104903
-26.34679102957152
-14.44111769700709
0.8747605760811161
0.5183722543939372
1.760798648876045
-3.153931479435884
25.1596641620289
-25.76843068089581
9.337818594394655
-8.729052075342718
-13.20590834837993
-16.14596831341148
10.15938323959147
19.19249342258967
0.1170547116588849
-0.03231242377952165
-0.08474228794746204
-0.01443059587655391
-0.002084660567357249
-0.08869215274075466
0.1052074090857716
-1.243327787718087
-4.80306863094219
-1.017927478652411
7.064323897274135
0.4022259226161397
0.09329690199690065
-0.5757541397100134
0.08023131507628749
-0.04425741474688208
0.1470630274397733
-0.02128482610323762
-0.08152078664899953
0.04259390032676995
-0.01426256883490687
-0.0773803296796565
-0.02600711026279435
0.05139594515972848
0.0816821990030094
-0.1070710340024737
-0.05577396013861446
0.1118745339247915
-0.05610057382247489
-0.04127031828331507
0.04495016543557642
-0.1218939846351553
-0.06485445559129607
0.1912426406764997
-0.004494200534012696
-0.05489536205469109
-0.03078779720906213
0.08568315920161833
-0.3897522575370893
-0.08832117199451664
0.4029456143181927
0.0751278151362057
0.197749741522463
0.1783254231922296
-0.3268921949204777
-0.1424233066369128
0.08509333323713431
0.08283952844128956
-0.0255095551107353
-26.10200446856485
25.34379495793075
-3.531245517293866
4.289455028386862
-0.4535489002001136
0.1037864536871023
0.2782337314918766
0.0715287148975652
-0.4062691822431284
0.165713517991504
0.5129111680535163
-0.2723555038813159
-0.1623862891384424
-0.0193853988855797
0.1062582008131673
0.07551348714932538
-0.06770103609764008
0.2796097213198425
-0.243565655964472
0.03165697065719952
0.01920619655153449
-0.228024746627709
0.09060510183805287
0.1182134481679722
11.90745415108435
3.040223517361492
-1.567465479135731
-13.38021218915766
0.1123036214434755
0.02399410593999132
-0.0931486106396401
-0.04314911681235122
-0.07924863590680123
0.2126028721229984
-0.03861597904953174
-0.09473825724581644
0.1167989180223165
-0.1156964672518262
-0.1549560045108539
-0.05374870331117721
0.04781602160830557
-0.04382668727124982
0.04975936893541544
-0.06063310723589211
0.4349822030892619
-0.3197705944169617
-0.05457850148849986
-0.01155281575663526
-0.2054910640800322
0.2042902268001101
0.01275365295196975
0.1433684529127022
0.07388265273234929
-2.305375091153806
2.088123985205392
0.122237651414571
-0.01810373069131967
0.0374118690409914
-0.1415457898185369
-1.325014483570469
2.061031835994149
-0.2802717859499301
-0.4557455664904626
-26.8803414215924
1.554980712172164
26.94061489889951
-1.615254189271525
0.07705145650802014
-0.3205639366888482
0.3350119101484858
-0.0914994301214339
0.09464973805370719
0.02465304516899624
0.07588780720041813
-0.1951905904911199
-0.07354491452144163
-0.01469344788062365
0.06943010886043915
0.01880825349983341
-0.5216669311566899
-0.6149166834583315
0.5958590465026881
0.5407245680810105
0.05539240713681069
-0.2593496585453492
0.2053847674334478
-0.00142751612134606
-0.1916437960869276
0.01856278469393854
0.2164373560118732
-0.04335634467405113
0.0236006219487688
-0.09215928921668001
-0.01555071632410462
0.08410938356249031
-0.3801627973436663
0.3609675810180499
-0.6593583655844497
0.6785535817641574
0.2540829255876503
-0.01406442752497814
-0.6471913293331447
0.4071728309844605
-0.07100326612028689
0.1353379118560007
-0.05273245600078971
-0.01160218978051042
0.1436479195323274
0.2762644367867531
0.009060278806618525
-0.4289726351789677
39.24453934990565
-25.20714751912481
-18.13656247665632
4.099170646005008
0.3493445061718942
0.105388347031585
-0.16641152596637
-0.2883213273305552
0.007209223832437515
0.02058994606129071
0.2006966327864126
-0.22849580275955
-0.6531211458167374
0.1262113128935746
-0.1003827033539792
0.627292536175976
0.08881130106681324
0.0422981130123572
0.04742658371591644
-0.1785359978519276
-0.05282708049532876
-0.05179885025639938
0.01774317403286257
0.08688275668369749
0.0479225227023188
-0.4090772340792643
1.725051550915922
-0.8478895611315446
1.27489234881
-2.152054338838498
15.55032089107081
-10.98780545647119
-0.04088921882431168
-0.1278324950458153
0.1298675036422944
0.03885421016304417
0.0007197034189296242
-0.1319250689881581
0.0265743860805492
0.1046309794486864
-0.1289912593205714
0.1222528294392967
0.0422595615779193
-0.03552113175664749
-0.2541257931866375
0.1017280851497497
0.336828868652188
-0.1844311607058386
-0.07459849296793371
0.02933910345277181
0.01943784171560993
0.02582154775564746
0.07838232371645924
0.0282433032472638
-0.00421338468386974
-0.1024122423560247
-0.07547557285658586
0.05568820843163239
0.09767630724970341
-0.07788894288037157
0.6653915763646047
0.7000785061223244
-15.23936206853945
13.87389198667149
0.1368358858179514
-0.1610529014222044
0.01015073044315097
0.01406628510697037
-0.1604375768972097
0.0440712675382601
0.03725944797584764
0.07910686130217459
-0.1912037751611381
0.342086969355867
0.1341933983129384
-0.285076592633505
-0.04953198670321001
0.03649854107840318
0.01303344558611399
27.695613354507
-28.47577599997976
-8.329707923028145
9.109870568330354
21.31683260735629
-2.571728278834979
-21.76282027544655
3.017715946907827
1.962982139437067
-2.207600920413103
0.3468667543626895
-0.1022479736176632
1.829322840556621
13.07413966544016
-8.332803315712777
-6.570659190332205
0.150298793944008
-0.03378189759454754
-0.1165168964170031
-0.008031783732768734
0.01375095599399531
0.08803435132346997
-0.09375352360989113
0.2802833939464257
-0.1247051106761633
0.4419683789853969
-0.5975466623359431
1.829673895020921
-0.1379369174432145
0.2824531167441207
1.220946037361272
-0.478107802801653
-2.047529770543809
1.304691535892492
-7.33665284483525
-0.2851418084763042
-2.397954580471607
10.01974923439322
7.608230005727878
0.9242116329189898
-8.212078641109201
-0.3203629977690176
-0.2879160882739898
0.1221669624996996
0.1173080473250606
-28.71994795650522
22.24107964599794
4.537231772988195
-0.1035341903971661
-0.1528527776745756
0.2267937106685478
-0.00381308920431886
-0.01938469998213802
0.02319778916667798
0.09482695690015802
-0.04742090067793329
-0.1440964539755344
0.0966903977117527
2.961607582762628
-1.705756378042054
-19.38595943129425
18.13010822699356
0.5260983799151736
0.0881529453159319
-0.7377454051066986
0.1234940797728362
0.04805736818411171
-0.04274893953392422
0.1282966133685916
0.355078261928408
-0.03340603705076558
-0.4995028829197344
0.1778306580079791
0.1337877334744375
0.05597062998953055
-0.08702897603442686
-0.1027293874670245
-0.09330010626432886
-0.4206099346944576
0.1983760565899057
0.3155339843211284
0.2785164866719093
0.02003266101466361
-0.2591477318023963
-0.03940141597659728
0.03285433104232339
-0.1965855435577343
0.03065858273746913
0.1330726296612255
-0.03529108846486836
0.4682614180687794
0.2621661550287553
-0.6951364847236206
0.198829548896282
-0.2531572678331967
-0.2723646316609902
0.3266923504728141
-0.06218918018023681
-0.288490134475836
0.3035785751457563
0.04710073933703362
-0.03448211660103224
-0.1425496576156608
0.1770317741612442
-16.98367308310143
15.54270487645642
-2.548591918193787
3.98956012432758
0.08551061513963222
-0.1199927317627198
0.1105083755653909
0.08132377672136998
-0.06596988504730622
-0.1258622672869399
-6.684026985856701
20.45194402292618
7.778601569129143
0.7197808414724504
0.01648760644325194
-0.4559850540012202
-0.8011923966394865
-0.3173730319934906
0.6601253273598824
0.4584401010870987
-0.03218674237186361
0.1115666635935965
-0.08015272668641954
0.0007728054032082019
-1.058250217370396
-0.4107318410137738
1.360790536309275
0.108191521731824
0.004125009531738699
-0.0113798002480245
0.04039515731366875
0.1177432750248172
0.04926418281401904
-0.2039085345022517
0.03690107661748376
0.06216636500579149
0.1410875251383056
39.49355908818037
12.30652895251882
-37.56897244017831
-14.23111560016635
0.04540780021375256
-0.08651068589425505
-0.003282654499017042
0.2880212157706742
-0.4857466743815038
-0.3479273350450804
0.0317772103993785
0.3605303444867591
-0.04438021995701971
-0.270105659157776
-0.2728420003866268
-0.1746812192442219
0.7176288786125365
-0.1312432448543685
0.1753937079211308
-0.0850345409592191
0.04088407784164316
-0.5385713472849684
0.4345574444147678
-0.01780411417484655
0.1218180169846329
0.07243328619238965
0.0005720536488354855
-0.01533006131313066
-0.05767527860424473
-0.6544355871229911
-0.1070212199496067
-0.1501915455915175
0.9116483526865243
0.1081365795819274
-0.006768967332969411
-0.02534052435752927
-0.07602708794800325
-0.3629990373003458
-0.1092995710823167
-0.04746336956337587
0.2591248005593402
-0.1681815792441436
-0.09094322136566883
-0.03799462025643901
0.02017968443664163
-0.1161106002366216
0.1339255359878147
0.03080612114978427
-0.1108343456104183
0.1057969726773212
-0.02576874827593447
0.5397638098211633
-0.7403445909167244
-0.1223633360688864
0.3229441170500523
-0.07657786538702746
0.09060464622041271
-0.05786988426800315
0.04384310333964375
0.1396023165626339
0.07119199825022224
-0.001425983289309239
-0.209368331580358
0.5854717329404859
-0.3595153581039686
0.03163896973270253
-0.1513258571251352
0.110283641449202
0.009403245884295813
0.04096044271427852
0.0009113061557417889
0.3392293091889457
-0.3811010581658422
-0.08605196957144794
0.009248960678612283
0.003258094343066551
-13.72335389232066
-3.569936160228785
-3.704556356246409
20.99784640890324
0.4629471842226544
0.07933200798484898
0.002830385842014209
-0.5451095780685086
-0.06280996593106568
-0.1775501287297312
0.1764625570460771
0.06389753751266164
-13.25029335849191
5.510318878972956
13.12076285425935
3.185659843492044
-29.55671605620844
-0.1337860561638315
-0.03781377305157735
0.024609644211628
-0.05051123239809143
-0.09438042053453752
0.1859060979061251
-0.04101444505207984
-0.3753701124863639
2.379298833471947
-4.328520935418315
2.324592214599384
-5.640905562181696
15.81653009135347
-8.346301688541677
6.597569914310705
-11.03329748423887
14.38665596423133
-9.950928394202892
3.245126820139898
0.03889927059208495
-0.6712029945867414
0.7748917485247226
-0.142588024631698
0.1152684191302597
11.01271704560655
-4.720347578288623
-6.407637886406727
-0.1006879451688524
0.002584306886180786
-0.07929532917954876
0.1773989673442772
-0.638380259729015
4.068987557627637
-5.173891360588663
-7.725977151051019
3.274284117680917
-1.179738877709491
5.631431911056456
-6.60445990158265
3.853014660951577
-6.83312369523708
9.584568935546679
0.008594757951736774
-0.142834166622728
0.0148344798302863
0.1194049287872076
-0.03407475526647004
-0.320748357504098
0.3639076136956028
-0.00908450099780618
16.7309522943378
16.46864599738651
-12.77043035235139
-20.42916793918729
5.09372431968543
11.63722797478312
25.32251027223785
-6.172681432404344
-2.681182842294872
-0.04367835182983965
0.15950145112509
-0.04272191963411736
-0.0731011797258117
0.1365571176254233
-0.09055561931394751
-0.08967985020458547
29.60607010032171
-40.50361829133124
3.321018646309893
7.576529544810765
-0.04931735457225173
0.04887271437919125
0.0030978802254353
-0.002653240121820158
-0.02460745979529645
0.06872472207272301
-0.04411726231929922
0.1398716202119387
-0.176323969221799
0.3285628607356426
-0.2921105118470053
25.73075366643896
25.93808597464417
-0.08424310784590665
-0.0484086438384433
0.1460711259290937
-0.01341937429568899
-14.29253784829322
14.32194989889907
0.1264362990027186
0.02389424008325781
0.02039697070771139
-0.1707275098758962
-0.02717498731147453
0.01282465773248084
0.01435032953887572
0.1647294788030778
-0.01412033921010923
-0.174204230736032
0.02359509110526897
-4.291772575047936
4.937154115707616
4.389140445422116
-5.034521985953368
-0.01505227299621772
-0.04424876119573831
0.01206981897718859
0.04723121516017631
-0.05333115646264232
-0.04086581530443827
-0.0351326399583718
0.02008036694612187
0.02153699351766062
0.06119240266607032
0.002723327711076161
-0.08545272393611729
0.06487517160507605
0.1169167183282963
-0.0120750984397522
-0.02305754153813275
0.07303004817908937
-0.113677592159352
-0.1052072195946135
0.1458547635209512
0.04241554136724807
-0.01544150445444257
-0.02697403694390423
0.02073200114728548
-0.08838168264269999
-0.09734532792111009
0.1649950093383846
-0.3057555921951956
0.1276337315332203
0.3176854040286635
-0.1395635435869433
-0.7362273138083588
0.07823040953566608
0.4919082929794782
0.1660886112244299
-0.1097998977444712
-0.2026157324389239
0.4258028239924682
-0.1133871939502206
0.3098927762397669
-0.03556780827270114
-0.5076124782607606
0.2332875102817721
0.0748990189554886
0.01925134789033847
-0.01668409387449185
-0.1402275761606428
0.3293373886332981
0.09716393045675889
-0.286273743073001
0.07642810356396798
0.05571373705770637
-0.1321418406530385
0.08678142055850339
-0.1076552498283204
0.06612265405633588
-0.04524882483001218
0.7875103647283475
0.01120779121206782
-0.4583626366781886
-1.263683968129559
-1.299879392549585
0.9378896144578238
1.625673746185406
-0.1101782141491757
0.03095382114016164
0.1108633627068247
0.07617783191253273
-0.03857312773061647
-0.1379489788762144
0.1010034299607328
-0.01630186270806434
0.05324741152807828
-1.173334338777823
0.7496942749732997
0.1931145474849314