/*--------------------------------*- C++ -*----------------------------------*\
| =========                 |                                                 |
| \\      /  F ield         | OpenFOAM: The Open Source CFD Toolbox           |
|  \\    /   O peration     | Version:  v1906                                 |
|   \\  /    A nd           | Web:      www.OpenFOAM.com                      |
|    \\/     M anipulation  |                                                 |
\*---------------------------------------------------------------------------*/
FoamFile
{
    version     2.0;
    format      ascii;
    class       volVectorField;
    location    "1.7";
    object      vorticity;
}
// * * * * * * * * * * * * * * * * * * * * * * * * * * * * * * * * * * * * * //

dimensions      [0 0 -1 0 0 0 0];


internalField   nonuniform List<vector> 
19631
(
(0.001870798393665655 -0.002202820464354755 -0.003616462131274141)
(-2.165785537643002 2.449453195280305 -0.6224204787655523)
(0.7769972546133622 -1.523203807387399 -1.575212787850638)
(-3.501497316242972 -12.59404845420103 0.2048659477256898)
(-0.003082120887553497 -0.007140901135159804 -0.0180380210823202)
(0.08739815817158707 0.03301329474187069 0.008623292095123131)
(0.01270565457968367 0.01403492578031101 0.008926807170580479)
(-0.4873649450610654 -0.4260991366954179 -5.495869942020537)
(-0.02706731488752622 -0.01881681899206608 -0.05153317328254837)
(-0.04227778101766703 -0.02597188861843046 0.02921646786697377)
(0.03723853266225366 0.0474084132546227 -0.113907980737588)
(0.003071742902675109 0.07648350218699754 0.009759786672232693)
(5.480056030668018 15.09239229721374 3.932212986434589)
(0.1039101721441165 -0.02211235716396186 -0.01939709392540438)
(-0.01429117320668098 -0.01958309832240605 0.0188299652855345)
(0.01312685778826019 -0.01928500882191743 -0.02592718136969324)
(-0.4792156095699187 0.1790219358650847 0.5919074991448475)
(0.0005184257384924663 0.007020335643753647 0.01487600879263342)
(-0.03849098224982525 0.002036505552743653 0.01902778934387534)
(-0.9669967143363187 -2.37618181082943 -1.645479519740061)
(0.02216665843875986 -0.001474646178944006 0.0127281068924247)
(-0.1410116182958701 0.5571094150752908 0.070803768960491)
(0.0369199183786993 0.04638253752273816 0.1775913675508294)
(3.347667207594161 2.600489765615249 -1.766054468261725)
(0.02116351200943992 -0.004757295988931917 0.02191645191570154)
(-0.02901731721244671 -0.03627353533861383 0.01983818918186185)
(-0.03389972527571001 0.0141437773503555 -0.04479625864975945)
(0.1397256003603901 -0.5158063480080232 -6.580429003054457)
(-8.201127761201034 5.344903088620216 -7.84992875247154)
(0.1320725554173059 -0.01984916155875434 -0.1544919958027906)
(0.006872279775403646 0.001201939937697695 -0.01537228181555577)
(-3.175004019416262 -2.836288281609853 -3.186386703287376)
(-7.351909235549888 0.1627156907713816 4.668030631665718)
(0.03952754514105471 -0.01923831990884893 -0.0156662614918743)
(-0.7167454339833038 -2.081515934916385 0.2907038841156852)
(-0.0419805978672091 -0.001916759169599193 0.02324346761283497)
(0.05298680816543616 -0.2083921101609487 0.04477936636487719)
(0.241239642426363 0.0717071714112435 0.03923802957815446)
(0.05316658017030522 0.007073817992379706 0.1221095831876301)
(0.1220176943313832 -0.03815664415499546 0.1037640499424276)
(-0.3968550458833473 -0.03073328566341693 1.587342381346395)
(0.2666574347861 6.854765822098812 3.328655416395645)
(-0.01929794226626332 -0.05249185926854985 0.00954775948648268)
(0.395247799178117 2.429409245741232 -5.486152864360552)
(0.7129733447135422 -0.2258457332290735 -1.351407993197431)
(-2.514286495835484 1.767306839805876 -0.7900970303172942)
(-6.059514352667994 -3.324327911327581 2.900112146140097)
(-8.338066078608144 2.477090511151446 0.1508889683413182)
(0.001893835952825884 -0.006279856028519642 0.01830714850856377)
(0.01700844556896446 -0.03642437311128372 0.02032006297234691)
(-0.01823914338071787 -0.008877390548411145 -0.0505647130920106)
(-0.04452802354695803 -0.02150231599614233 0.03559097011634792)
(0.9489890564983926 3.100505618244295 0.4539219574026375)
(0.06550875371275008 0.01001243028929622 -0.01953385504932177)
(-0.04108517375482952 -0.4091214669864727 0.100888597608282)
(0.12155830327053 0.5107130462835299 -0.5760025469020228)
(0.4300269191524542 1.017288619867656 0.2354647178054189)
(-0.004346142960211097 0.001898064406326851 -0.007878760455740545)
(-0.04165318817601635 0.1263198701921672 0.1706868221170779)
(-0.3779159467286457 -4.773983719983148 1.045478353837168)
(-8.902123697852744 -6.047109300171611 3.036569070024612)
(-0.4581329358235203 0.01368113360375281 0.1209667036756036)
(-1.039758117631973 -4.08590971205115 -0.06941608897150786)
(0.2349439373771297 -0.04083904420231966 -0.04690641373093846)
(13.13726584907042 8.930523586275369 3.042698700124471)
(-1.186257963897071 -4.138628886908711 -1.787078941272479)
(0.08410469619085774 -0.003838587420233283 -0.05010142696543622)
(-0.04634485605113045 0.1786443964923685 -4.747818520592749)
(0.76330806792382 -6.477351331489274 -1.564139300786722)
(0.07627559690348197 0.2645503736713488 0.1500561629787795)
(6.43126414278825 12.41340566707993 -0.5733548936086533)
(0.0270310128494639 0.2600380010623146 -0.09488681761972137)
(0.03374357713382943 -0.01778210769443051 0.03685918857115657)
(-5.813790447299095 10.38840622729564 3.753567302814984)
(-0.004881307836700884 -0.3422851552166988 -0.450957673153728)
(0.5371098778229054 0.668660121137797 -0.7444354387355556)
(0.02598778807892131 0.05188817052520422 -0.02875901308272426)
(5.854832525931212 1.722154051188573 -4.608661452175964)
(-1.370032258328481 -11.27641287884765 -1.287492644650703)
(0.06046840192007058 0.001277968509117601 0.02328141130728818)
(-7.284114506968638 -30.96406947417384 0.05378483852865679)
(-1.767059393176809 -0.3497703036641767 -0.2935560918660309)
(-2.000860568228897 9.688876163358412 -3.047096731453737)
(1.972123824217093 1.866710595254336 2.068454409114367)
(0.02683973852296456 0.1131316359836259 0.01525709136257285)
(0.213857694871141 0.2483035263388043 0.2790086104081774)
(-0.06828293884516004 0.05623777436970175 -0.114151273349096)
(-1.058781085037892 -0.597198598753351 -0.1480551936223002)
(1.001211820403437 -6.253982248674412 -0.4168069557143325)
(-2.755629277765264 -1.220794902593358 -3.528589805890011)
(0.4830338907770221 0.524754759296961 -0.007637998117319911)
(-1.397817475961555 3.098722982752188 -0.4751296886884183)
(5.540041043571131 5.796999792068867 -1.836537054989207)
(-0.4416804870110966 -0.809759519420544 -0.4002127842099058)
(-0.07421944248082579 -0.1326461937610238 -0.6082159818292832)
(0.2580347429083762 -0.3010266247906855 -0.492988506028031)
(-4.507852841862698 1.051479916839751 -5.475953223862888)
(0.04802513449432435 -0.1510754142663789 0.05434537868717956)
(0.06174741231064196 0.007842014654798952 0.1765673581363355)
(0.00116908977080428 0.07898864298866273 -0.05617575570188604)
(0.02925641924146884 -0.01002169927001365 0.009678992335303366)
(-1.785948493358356 60.7524425855639 8.171401465014764)
(0.01785036271681652 0.0437729862607203 -0.00263604460326981)
(1.475317698059531 39.00409901136615 -9.761543886937751)
(-0.02014671290029688 -2.749722957417563 0.7182859407948917)
(-0.9756638372283912 0.582850913745137 0.4832234334967919)
(0.05742802728337286 0.004388445872932247 0.04551095747397686)
(-1.318562265138913 -6.352897618038693 3.915288267283134)
(-0.01081850231536943 0.005983421302929384 -0.01649422593795865)
(0.01061759007664792 -0.04650987412627743 -4.546908778115779)
(-0.1886667150501588 0.2338231146482438 -0.3362008895181314)
(0.384318545821156 11.01119380568566 2.84231945822695)
(-0.009356974673141553 0.001370271854977149 0.01931154669457563)
(1.135015176823885 30.38070991799792 2.13817196120856)
(0.4568289625368007 2.698652816976551 -2.723258295017179)
(-0.5822007495931699 -1.518403599794975 -1.804864924400046)
(-0.5978360674147326 2.736265829324454 -1.143086914996866)
(0.002211397842739556 -0.06387933235395836 -0.134751250060775)
(1.545080839304606 7.48462637779301 -1.278718279607125)
(-0.01166677934208826 -0.003272540322831316 -0.004643232917339063)
(0.3218436945004589 0.08207886971986077 0.00517307460099984)
(0.1774473127081834 0.06334184518990631 0.008768519496661758)
(-0.01363866840844826 -0.007769951664155995 -0.006056608079989539)
(-0.3623064393551721 0.2625006713299325 -0.1546557104172489)
(3.157221902312584 -0.8527591299249497 -2.966161420284059)
(0.003917573378819717 -0.01142001791751675 0.04215487699015454)
(0.08936287531257028 -0.009906926937537714 -5.302134164839208)
(0.095781737372252 -0.001127187916970661 0.02067721625190935)
(0.02750994212544627 -0.01130635606620046 0.03423859904805115)
(0.07015764677628417 -0.02059955371142397 -0.02276922329948848)
(0.303075156198969 0.2084770213907108 -0.07472493962702345)
(-2.165165721580923 1.897590377935255 -0.04059651783880702)
(-7.142122472525844 -35.56710830166972 4.511029213916538)
(-1.414616649786563 -4.943264811057833 2.373221638879368)
(0.01573707217795604 -0.02341366152517123 0.002725037403217845)
(0.0106881301030173 0.01347353936026689 -0.01013995421909228)
(-0.1964506964150892 0.001255877287171234 0.1185288475417697)
(-0.1487774390115005 -0.4471722784377313 0.2211191608163635)
(-0.3608021637044702 0.1507171520312493 -0.0904501089045667)
(0.1439531173785148 0.04596575217461771 -0.05642437005448899)
(0.05424633548136424 -0.3863370525518768 -0.2861136156188531)
(0.4442888464065379 2.388273205230599 -17.75604728107994)
(-0.4091144321459378 0.0525889714173505 0.2471760230560535)
(0.0457009525319656 0.1434855566886075 0.02662998499968727)
(-0.2157575582885312 0.0119497366765947 0.07697601331201009)
(0.1761142702364105 0.02304009317584088 0.09938911099740534)
(-0.1226461312394927 -0.1863702463442279 -0.01592101727766214)
(0.0122753352552246 0.01069826250551547 0.03544117834767908)
(-5.550771561805673 -0.1738743926546307 3.47801317473741)
(-0.4410107832697608 -5.244119639666132 1.785924108689595)
(-0.02034902169511568 -0.004032597625379893 -0.01969987937825014)
(0.1027732951821871 0.04221388596243393 0.02353952291161263)
(-0.01413161217805948 0.05278419333965417 0.03591382953209241)
(-0.02756422459899212 -0.01627904857047465 0.0527868479038626)
(0.03493485149925223 0.01741661516763416 -0.03159382273815501)
(-0.03876402579525209 -0.01192602007643557 -0.07436999348140788)
(3.139194316719513 -0.901130872506302 -25.20839931258742)
(0.1134466732007648 0.1044653248438179 -0.0253316710730656)
(-0.04768750307629478 0.06957081270055257 -0.1362551235241878)
(0.03680383414835138 -0.04310399431901721 -0.01195209035981833)
(0.006715325578324916 0.0001545460256071537 -0.003507926320184263)
(-0.0334654819371261 -0.1163876528205946 -0.09279832731605017)
(-0.5350710925764955 8.285264732712021 0.7985397066021902)
(-0.09537924356892472 -0.1821018210356818 -0.1296522144468181)
(0.03058421923696488 0.03405308614649901 0.02175931112376341)
(0.0007212248019424182 -0.01279615136467129 0.02198368121888159)
(0.01219131201185326 -0.009493349250579474 -0.01233723016428895)
(0.02205654143583648 0.000171504476480234 0.0008569782866343027)
(0.04735724506588637 -0.01719681269892454 -4.197733104860964)
(-0.4039509076312138 -5.635998822716925 4.273765042393679)
(-0.2161368868585093 0.01817007492541844 -0.09673038894581487)
(-0.1627253783346772 0.2572256526254408 -0.6266932732310948)
(0.332287491950243 -0.1080987102881512 -0.3775029140095555)
(-0.8112262415882634 0.2812650895392891 -0.5282538739218741)
(0.2277253568951464 -0.2244612266395498 -0.08287482523126607)
(-0.1421991273075233 0.2240453706474496 -12.80639943753306)
(-0.09052206329542506 0.1510282572939238 0.06458076337513709)
(2.354911828945395 -4.235955803578916 -5.126687122514374)
(0.0695459826052658 -0.01175822177371939 -4.252744057520359e-05)
(4.808422320673234 5.453576332176533 -0.1238782530575184)
(0.448600666403117 2.706207958428902 -0.5674594734012769)
(0.007226173931482476 -0.004748050874568429 0.004372567245674694)
(-0.07343071882657411 -0.5470607921712131 0.04837137576702615)
(0.002998137715001872 0.007492667940497015 0.04487870715216231)
(-0.4069603282213089 -32.13861449582037 -2.247579012678091)
(-0.2088902948501075 -22.89459557355324 2.113156144022832)
(1.020619605834814 3.65506450658422 -0.3742960036521699)
(0.001479138117824714 -0.005412822671151112 -0.005724335454646422)
(0.9752768432996753 -3.812147934240428 -1.448461014834223)
(-0.004922294660263449 -0.00222714435899956 0.000194362962923288)
(-2.164049501306949 -22.70529478562401 -4.575193601700143)
(0.137156897532012 -0.2363862824273579 0.1671662871854988)
(-0.07240832941374414 -0.2379617250042556 0.01021823382569856)
(-0.01692165578521113 0.03682649483371271 0.008083531314920088)
(-1.82075283336363 -11.434171729705 -5.273018732392386)
(0.2522851423177482 0.4195554040491888 0.2481983890275796)
(0.04885333141827447 0.04056543896014211 -0.01202496585937193)
(-0.2411534574783935 -1.308617907182241 0.366227291932843)
(3.219331994379318 29.91069277115034 6.643037132353458)
(3.926140865507947 3.198637290335434 -3.744671157496787)
(0.9666768549834073 0.0881824251550114 0.360886818135577)
(-0.2189495300540078 0.1653639872572265 -0.4798008902905506)
(-1.253986780583162 46.50333508917202 1.584824063470345)
(-6.477685535417033 8.748683864021727 -0.1337111225100299)
(-0.02088171251904256 -0.02277835203191274 -0.05193062406300332)
(-0.03980936364649669 -0.002768401118070203 0.0002175306329038201)
(-0.037586374029654 -0.01193626578903586 -0.03720574564822082)
(2.832175605940842 5.150247011477681 -1.611546904078632)
(-0.2304999617852899 0.06325479082752145 0.2057035476177021)
(-0.09649976709241351 0.04229241614723039 0.04021845478093572)
(-0.03512545299840086 -0.0926884619208569 -0.05288882865312036)
(-0.1844007991157636 -0.02871640540131465 -0.1196283648650031)
(-0.01981793884390609 -0.7357788495165741 -0.05573544754542705)
(-0.04732835413054878 0.1635376228729946 -0.07766164716639522)
(-0.3469017729819759 -0.03955108864402048 -0.6009476792273821)
(5.729692713700931 -63.40434785270585 -5.761175801779868)
(-0.7452812828005069 2.359813118050685 1.030943909258295)
(-3.001532832019908 -4.126878762242607 -0.203926754045601)
(-0.04756303233639986 0.1262567700698763 0.001888630317184403)
(-0.4503833442028396 -0.9367859899558832 0.3346818156114734)
(-0.00744003416138244 0.0005645525060912495 0.0005991887580708312)
(-0.6319134566325499 -1.510909253665737 0.09883997612339465)
(-0.03662292052778274 0.1596252262234829 -0.4321901225931526)
(-1.260369622895309 -0.671338603948554 0.3239064111890331)
(-0.07973050868075152 0.3621360517646054 -5.676113734983958)
(-0.838837840554737 3.967355419595251 0.6667766584620545)
(-0.05677345590068329 -0.004688322114472988 0.05562809912242594)
(-0.005402695045612782 -0.02458743701314563 0.06893496009798218)
(-0.3013940193289774 4.071369600152477 0.4907076277460777)
(2.473851770463675 1.41135248234894 -0.1558494646904208)
(-1.248099163259454 -3.411436950825508 -1.621549260297549)
(1.685642539559028 -0.0811077598890062 0.3007048516235518)
(0.3477310078227099 -28.71607889923983 -1.350842225606827)
(1.406422822028199 48.78268981835639 0.9342677016244523)
(0.0007416493250189515 0.1301862460168868 -5.914116685231639)
(-0.114518826814513 -0.07516559727225428 0.09246078670579752)
(0.5811570748014269 0.6521229887188369 -0.1209901647897185)
(-0.3080216037579102 0.09579729868032971 0.05316531075956037)
(-2.989900005436979 -1.035476664670942 -2.478087357006817)
(0.04190137176562372 -0.02740030474423216 0.07066110456866334)
(-0.02203004427161049 -0.01032261573335348 0.01338017932040991)
(0.02228217977951359 -0.003590876882551428 -0.01971154606972964)
(-0.7912769442437448 0.7590024489892402 1.466144639149469)
(-0.003819641662375163 -0.008015094669237159 -0.0105929005707012)
(2.449068213800901 33.27431702879874 0.671905635384318)
(-2.021091965762592 5.531341207998585 0.8384765250272153)
(0.004725176578950609 -0.006865205637382736 0.004221321242023034)
(-0.3740378361943404 -0.08911976258632547 -0.03136404696737981)
(-0.9477635608320382 -7.737054960480654 0.6383515279474741)
(9.512987765885807 13.27430059283572 -2.349147352109362)
(2.550322592905284 13.50108368003819 -0.2137248558417576)
(0.1787135364410004 -36.69884558043329 -3.541677817715599)
(0.6006761468094912 1.633841958492309 0.4333364183728562)
(0.1117813651983658 -2.034314802221439 0.428012192177784)
(0.7676159328964303 27.8502706061171 3.247317002072619)
(3.297436956224759 1.423856509876019 -2.038763913522533)
(-0.3316738169607474 -0.1666132726050572 0.127003845144657)
(-0.993687265754454 -8.698026378813152 -0.7622624373048148)
(-0.05622745298137603 0.1410129643276758 -0.003464082684910691)
(-0.6249598405694923 0.1960882701870875 -3.001975791943721)
(0.4225546903378241 2.724095879359501 -0.1536614253845461)
(0.536688923145314 -0.04434701857812773 0.7464689030509269)
(-0.1310240624777239 -0.2193723707894813 0.570042901398067)
(13.0582099124946 1.181133888729985 -13.15840012060169)
(0.3289998898796097 -0.02242995732255956 -0.4025397591341829)
(1.012457219072279 -2.303310689537693 -5.201789168307847)
(0.5361031681988945 -5.223515093220792 0.6351115549132113)
(0.02250904233304218 -10.5880909697732 -0.3198904896945204)
(-1.181752163503379 15.24367524702044 -3.852546948948839)
(-0.05552261421847619 -0.2969769704940797 -0.04715733881118459)
(-0.3692569254791309 6.945336470168921 -1.435152217371165)
(0.5826788608850607 -0.09446887719609848 -0.2397206830416675)
(0.1370073066767472 -6.763499100901788 4.295954272639345)
(-0.2807726597067849 0.07172985770371833 0.327432411907099)
(0.08471420044020078 -0.02617480010004421 0.01177770692169765)
(-0.09420361215422857 0.04317988842982156 0.095792159023197)
(-0.4433025498961105 -6.28595455228621 1.432811443242713)
(0.0002139990126829305 -11.99308724484639 -1.449375747058423)
(-0.01049692294904726 -0.3649428278313937 -0.05645111878384956)
(0.7504947329460983 0.3641422926670412 -0.1093157267720832)
(2.448956614860514 -5.055323304294896 0.2835928724285461)
(-1.682780299684445 -8.014761496366985 9.635560326330564)
(-0.03008662485555385 -0.3333336583682199 -0.1693000076239422)
(0.6431622303401836 0.2030504580196577 0.5652988223359867)
(3.166927316100431 -3.620247266272637 -2.926342711208775)
(0.09552002508864081 -0.07099671575904684 -0.2509123690938045)
(0.002403978761964457 0.007462057897481237 -0.01725628870907448)
(0.1040954516703896 -0.1195564106169638 0.06598794079641296)
(1.369584557297459 0.03194289017057106 -1.761718990090369)
(0.1000282811972647 -0.08333411070139476 -0.08098253355853369)
(0.7544613184655574 -0.1093040387471043 1.632669934179322)
(-3.057099960857612 5.546504099244798 -5.199678996887678)
(-0.115010691690877 0.06076970435105342 0.1550885879984203)
(0.01515573208309259 0.009299159230427076 -0.006453068739056753)
(-3.520428001009979e-05 -0.002111107422367592 0.007059237121137376)
(4.329478212527464 7.132518121249573 -12.0564871527983)
(-1.787203235359375 -3.388340765428634 -2.912220170681035)
(-0.4055188534520316 -0.1309508397940043 -0.9794711010193605)
(-2.346793188387222 -3.816417030820341 -2.824048454985475)
(2.484672913139018 6.243030408909815 6.172845064884779)
(1.293176777747365 7.227347065671544 1.637453718308475)
(-0.4995332029164354 0.2662732027138531 0.469382799373577)
(0.03422567500676793 0.02055862233467336 -0.03048405312358489)
(0.8175628665623496 1.518135683864815 1.050718549825005)
(-0.462951245092899 5.606059099993438 -1.491198864191414)
(-0.07555620250310985 0.03232063639661016 -0.02961334049356393)
(2.93186324192528 42.57269232855448 4.803789289978074)
(0.001712636131102206 -0.1067106203540791 -0.06220086345224173)
(-0.01317576406974165 -0.02683608211004402 -0.07045723556116373)
(-0.03448862156697308 0.01796386605428645 0.04825302281363666)
(0.02719830253173944 -0.1096705483508564 -0.005953507479797307)
(0.1173562418491238 31.3875822786141 1.188642884005665)
(0.8932662186666394 -1.290900067339939 0.2553374546836)
(-0.07148675413028721 0.02968061125303043 -0.001327249162052753)
(0.0307365673805883 0.01785054995518743 -0.004544727170265427)
(0.004866274521587789 0.01998760524226033 0.006672429760786197)
(0.0128978295784689 0.02642209531184546 -0.02461958934736391)
(0.0004748436450174795 -0.005677541841223587 -0.006562724483127273)
(0.1961892292728159 -2.152100870383671 -2.109230001548126)
(-0.003486620966941363 0.001032754476738787 0.002359190333690675)
(1.364083340103173 -1.031978033466894 1.413312743231648)
(2.002089148181902 36.18210949040987 0.3600800627769591)
(0.1114522344821517 0.342855423255098 -0.1200344132646501)
(0.07165233643188128 -0.02824329040406617 0.750623066921997)
(0.2798380633406196 0.4788673834827056 -6.065034478748021)
(1.158324908865417 -1.65412112096592 -0.08106800070134323)
(0.4325277663918556 0.2677977961148392 -0.3175443809827576)
(2.357203309094651 -0.8350998631316946 -9.656659843055893)
(0.1254968073767276 -0.0403972894229787 -0.2879503072307342)
(-3.201469686202851 1.23204097935584 1.196728553711111)
(0.3770031410260576 0.06479300607322078 0.1490363621138671)
(0.04484736848101052 -0.05476505982305773 -0.03134515979182296)
(0.03409694272836994 0.121746461927686 2.308620170229751e-05)
(0.1302050924895075 -0.00580137879908163 -0.02516718608568922)
(0.4991897537344548 -44.68657031085866 3.422910684454121)
(-0.1405824639844006 -0.1117630670444357 0.09218183730717229)
(-0.255020969318565 -41.88586493749057 0.1081433909352435)
(-0.04995012047705272 4.559368044808745 1.920053876382564)
(0.09544141282901525 0.0392343742465943 0.01059864210345353)
(-0.1164246253073793 0.01856692235309632 -0.02630587542788422)
(-0.03547380393112491 -0.02282776731666333 0.00722482868823867)
(-1.101932201291426 3.118771126381275 0.1699288374972969)
(-0.004892049977824619 0.002208407116006401 0.0009931187545206277)
(7.142153205269122 18.16356908123191 5.814154280504082)
(0.6386271816628897 -4.430196587076822 -3.537363539497274)
(-4.513229672633317 -8.678243074090659 -8.787101497237085)
(0.01425801543903545 -0.01908214536349946 0.02997403947985874)
(0.1819399547884583 -0.24939062337464 0.3804770658820423)
(0.05257836303493223 -0.007093267838266429 -0.01868945225111448)
(-0.5925162823979495 0.04122645714155614 -0.2450565300257279)
(0.07286944174318187 -0.04764669064956848 0.05112011350060656)
(2.294089911729928 0.2915723263164933 -0.465149558709164)
(-0.4512571467219469 -0.5241684946308656 -5.916912841962439)
(-2.474133262188975 9.374671895694709 -1.292836079513276)
(0.02773906156580504 -0.03200744132390939 -0.1700546554463628)
(-1.96736675666374 6.443196912942081 -0.6550989082090813)
(-0.002429571818576254 0.04451074871898681 0.1397968899474734)
(1.929784103719996 34.36336080252471 2.987257637737775)
(-0.7291206945418438 1.708719796055383 2.330844711028882)
(-1.687060433836693 0.4129808461732535 -1.45686081919594)
(-0.06350523579041005 -0.03063629820838695 0.008641177785132913)
(-0.6033596620210686 13.84747650718327 2.944660191716733)
(-2.338964365194586 -0.7773104429574651 -0.1421231650586766)
(-0.04309820251871789 0.04476495304786936 -0.1566659490476511)
(-0.01447218241584319 -0.3197126786690233 0.07884217129190654)
(-0.05069116710940204 0.01144862493650649 -0.04088454094828815)
(-0.3863292401248546 -9.064001286367255 -2.247660563701939)
(-0.1219729894332593 0.05388250845221633 0.3008454770446531)
(-0.01331161209354005 -0.03502757117950251 0.002468271098895206)
(2.066853405098078 1.438253648166874 -3.927405730265779)
(-0.00551571852329823 -0.002543056708533745 0.004340726850122507)
(0.001204987431372219 -0.004425364976594346 -0.01054332085829315)
(0.734234251525726 -0.5163536571457081 -0.03285668583046061)
(-0.2590865534016631 0.1118717940898186 -0.1317052643827169)
(0.3662442854614748 0.09070199995047543 -0.2450615005993817)
(-0.01048957897674283 -0.003359442925319126 0.008194263831192476)
(0.1620592164121614 0.7357405104907601 -1.853244252875599)
(-0.001860335716641368 -0.001548755917653938 -0.003637874129224044)
(0.04105258712782438 -0.03852384476648818 -0.07430428314680103)
(-0.03567344038147081 0.003370824665348701 0.03504144608476933)
(-0.03978213058508712 9.935066029803872 -1.170914466586402)
(-0.03453334788120941 -0.01130223038825594 0.02909107999545177)
(0.04794902374382826 -0.004733053101320717 0.01729828453676914)
(0.07430654490670445 -0.005372892001275338 0.05534607972953482)
(0.5999741593800894 -1.919483745753024 -0.2813039676099999)
(-0.5016537890406096 0.7301141141735539 0.3861537441389049)
(0.05656270540509496 0.06041864089318604 0.1259006546946911)
(0.02796413817704607 0.1734349587235228 -6.614644782437639)
(0.002722683763406453 -0.02444356425312212 -0.08718131216328734)
(1.148275533542901 -7.179059840269771 0.4422519798462199)
(0.849371684474568 -2.828530201019707 -0.1516824816064246)
(0.133003962554249 0.04096002589160835 0.0261512165040493)
(-1.3452496214746 -4.435864736388513 -7.333223360347843)
(-3.618006944285542 -35.68145309014411 -0.499753182550393)
(0.06245107290711242 0.08953255836938534 0.02003585440054514)
(0.02396430288523716 -0.03132987725886386 -0.008664816174747826)
(0.009452649056131225 0.004012180746848144 -0.001769460291989151)
(8.927201240573602 -0.05178692374406058 8.984619693739702)
(0.2005123487587962 0.6575064079381321 -5.482842466341479)
(-3.522566184095999 0.5354471567675564 -0.6798957475802503)
(-2.406541993801334 -47.83259680390764 -9.752754566615337)
(0.1079348611870792 1.364899911663258 -0.20383812151971)
(-0.7888173291029874 -0.2910150264822748 -0.2910159976410883)
(0.5872890048569243 -14.84907489862329 1.244908547866889)
(-4.682741627532472 -2.772882845890464 -8.900992158943421)
(-6.483357584718152 -43.76481531939343 2.881346762144358)
(-0.3935386933779728 -0.4458107217635994 -0.1772676724942336)
(0.4264178001526046 0.4168236722555403 -2.845712657848202)
(-5.724284008320812 -48.02642962917377 -4.253826702026696)
(2.287806013714467 -2.224664329794328 -0.6711255821158625)
(-3.143326069015463 -34.74716210875409 -8.123477231079745)
(1.362238579945503 -1.869810095979048 -1.456731309131706)
(-0.0836377754071523 -0.1168918235824876 -0.1851959586083737)
(0.4644531447388129 0.3333833480554627 0.3678106667084757)
(-0.04961361567789732 0.09495595674801074 0.106008147585868)
(0.08019951522326907 0.2433510791892003 0.1894609693859222)
(1.710460821401219 1.275024925946073 6.153235201523503)
(0.06823878042387149 -0.0823699825006083 0.001038792656022816)
(1.364818418817364 -54.70788604004465 4.147626256081576)
(3.537275561785527 2.32161558397017 -1.238295590950497)
(-0.07511078914359648 -0.0377988302537295 0.02076331056975087)
(-0.04293278036479398 0.0004018644489570946 0.005312161951341572)
(2.698022610945694 0.3558102805928564 -0.930890774875757)
(2.217524497324107 98.2099035392143 -4.787256779516976)
(-0.123097673315906 0.2687306717429779 -0.03037735705928636)
(0.0259511058056779 0.003189516668292418 -0.008990120662289132)
(-0.4979065221742468 0.05489688012951505 0.02363875419581081)
(5.975289797527264 1.632828120986709 -2.060766278745969)
(0.1757605845055648 -0.1665265857382126 0.03256686585169091)
(0.05245991625741062 0.012049479301858 0.0006184537027398174)
(0.008301516541740692 -0.1432299216129171 0.1110381703766846)
(3.904619134546184 83.76501433331434 -4.712374394583671)
(0.1950921328934676 -2.999115885202048 -1.530802960639257)
(-0.01534955039867926 -0.03207823760263545 -0.1097111761252221)
(-1.685733124000347 -1.432607927872291 -0.4792894136897685)
(3.399184401590411 13.29222424876702 2.763767559587218)
(0.0114576621878203 0.001520190996713203 -0.003388544982735724)
(-8.569841521123186 -16.40234116279027 -0.2391960521241127)
(-0.9392972509526183 -4.540923942918864 -1.009073986572951)
(-0.8846859386966681 0.9852702962661628 -6.927461653237061)
(-0.005928033780289809 -0.003043463042608891 0.004476140302911187)
(-0.2481697076752286 -0.1644578617781627 0.3606795884984385)
(1.591993122374482 -2.209775288110892 1.615075156726414)
(0.4804737885627781 1.062552474348139 -0.2551666463068617)
(0.002910223218449377 0.003325385686257226 0.001451271165574421)
(0.6465378904457646 -6.566682015604035 1.529439982652655)
(0.007717584323602855 -0.001642259004613144 0.008584921305659951)
(4.536345442228283 2.144571805475864 4.152355446613548)
(-3.623669397999554 2.265341076150987 -32.81089691522281)
(-0.01340623397312905 -0.03962219297000108 -0.0300390530846255)
(-0.7287076864859054 -0.1171766005377777 -0.3497451129480215)
(-0.821495753414154 3.840618286299894 1.288479655407548)
(3.226217391636905 9.072304755060689 0.8570962281258327)
(-0.0809511114056658 -5.896167031800783 0.6111362291109146)
(-0.003309209524412985 0.006727900043267499 0.006493285694673979)
(-0.002788443220058317 -0.005107582173517762 0.0008194100770417328)
(0.03083746091390388 -0.0008960012870949646 0.00615953624213686)
(0.3909695296300662 0.8994899040934914 0.04796645881589551)
(-0.00010116846927824 0.2566109489789071 0.184272208856619)
(0.5615213726684252 -0.4741105645603464 -0.7001868917284584)
(-0.1247465937270063 -0.6419611573687913 -0.03564083257658412)
(0.01136952462243555 -0.05233979643442816 0.02284418108777074)
(-0.6333432528624339 -0.7808073963993657 0.9080154973596244)
(0.008859676735092031 0.006424262971228273 0.01088388242066129)
(0.4456561414520838 5.769511356249165 3.032129453316454)
(0.01531535268022512 0.03197809720105195 0.04631538622678792)
(2.40966438662848 3.6436075454979 -1.512506518128697)
(-5.072232521990994 -3.234661516106399 7.756036812353166)
(-0.06856440894306394 -0.06895541284157028 -5.907242986888718)
(-0.5608442360777101 -2.435224907403022 -0.03369572021646376)
(-0.2661727211319926 54.22569786772028 6.819161180956555)
(1.528875009632428 0.6395012464991379 -1.170675655435214)
(0.01073068038088351 0.01858133682366986 -0.01148473807950886)
(0.03136920287727847 -0.002683833947537789 -0.006922554171638829)
(-0.2103818549211596 -54.17474573646201 7.088279340836587)
(-0.008790815456637529 0.1613936642436348 0.04384194155313067)
(-0.05538896522860862 0.03135103456463157 -0.06418386690197682)
(-0.6765504142654314 11.65287594915321 -2.594286265528225)