/*--------------------------------*- C++ -*----------------------------------*\
| =========                 |                                                 |
| \\      /  F ield         | OpenFOAM: The Open Source CFD Toolbox           |
|  \\    /   O peration     | Version:  v1906                                 |
|   \\  /    A nd           | Web:      www.OpenFOAM.com                      |
|    \\/     M anipulation  |                                                 |
\*---------------------------------------------------------------------------*/
FoamFile
{
    version     2.0;
    format      ascii;
    class       volVectorField;
    location    "1.8";
    object      U;
}
// * * * * * * * * * * * * * * * * * * * * * * * * * * * * * * * * * * * * * //

dimensions      [0 1 -1 0 0 0 0];


internalField   nonuniform List<vector> 
19632
(
(5.019756963003689 0.0145570447627775 -0.01275855327146774)
(5.00079876221651 0.01135537437526274 -0.001016999875177033)
(5.000230791163994 0.002060824137458498 -0.0007401581548383157)
(5.123005892503882 0.1628156733812727 -0.2582397846589647)
(5.003220083394149 0.005322589443954027 -0.01460287861860669)
(4.998529178209886 0.001062606720753202 -0.002415050775409839)
(5.028425290580677 0.07887780421282961 0.1442170137029749)
(4.999422567146192 5.034765721809224e-05 -0.003258280825353876)
(4.999829922629651 4.235290671502611e-05 -0.02411280805313365)
(5.057938199292543 0.02719852675173591 0.00416373246621477)
(5.046979315011178 0.002951228754197899 -0.00606070735867109)
(5.012254992536454 0.01832173341509074 -0.001489088505714509)
(5.000489902545652 0.0009287352134852577 0.0001310735162985548)
(5.000363096338613 -0.0003199340648186618 0.0008058676309421074)
(5.028098433981746 -0.02707414984027071 0.004625027856518499)
(5.060819391764872 0.007270228350331415 -0.008843623105299689)
(4.987224667758964 0.01211108248364346 -0.00584157703606994)
(5.022355310446167 0.001450820518058563 0.04998843415734189)
(4.999102528513931 -3.433362808795752e-05 -0.001238310080487491)
(5.000232191418667 0.0117593639430701 -0.001724682688492867)
(5.025147844251508 0.006710613351372131 -0.01120256873684171)
(5.168709582356963 0.2142484153197146 -0.1971874698352752)
(4.780245167474231 0.05288444416561364 -0.3157421409786297)
(4.999039832458755 0.004006849617693987 -0.002432477655721206)
(5.001508874667213 0.002248998305148932 -0.000154065279640832)
(5.001267234163151 -0.0004616344693424812 0.000538874557970431)
(4.998978728859484 -0.002110982138163171 -0.001208281805014726)
(5.060538498856473 0.2623906800007497 -0.4655243392043024)
(4.974633117341067 0.00529447714721903 0.03101262069243299)
(5.00174679733331 0.000466099022784164 -0.000447238069792571)
(4.999703322721988 0.001169742129233493 0.006344963103515095)
(4.99980312012316 -0.006419769944050732 -0.01398818993715624)
(5.067313886891535 0.009125325812042472 -0.07857415396136588)
(5.153199298401178 -0.0004901674419022598 -0.121501276421297)
(4.999943898403564 0.0022876763516384 -0.002438761137351106)
(5.00094780556849 0.0006229680234087416 0.0005271182194348862)
(4.999230130505461 0.001385085318384788 -0.002178982961242428)
(4.998747776478178 0.000695358739901929 0.0005859306786002785)
(5.000214600161845 0.001554066358304565 -0.000626989980023224)
(5.026782627374837 -0.01146605518026556 0.008269333951792935)
(5.001677896328139 0.001680735283982352 -0.001854908055132562)
(5.0105107390669 -0.01758035015634229 0.009525004123673016)
(5.006119187724894 -0.03659245714501526 0.006706764710684257)
(6.519887799490333 1.718415795914789 -0.3455806912032459)
(5.000873218619582 0.0007202698167028239 8.281855680613662e-05)
(5.001905138818945 8.26436120284151e-05 -0.0001897999287704139)
(5.000057259942594 0.0009493012707246714 -1.917821273449258e-05)
(5.000255841291143 0.0007921052977731919 -0.0002467570742139652)
(4.991037321486074 -0.01438288803913654 0.01607303957457319)
(4.955866217283205 -0.04768091687401835 0.04804375656745395)
(4.997276790660403 0.008515561701306558 0.002364644114048498)
(5.001172768439084 0.01159699889090407 0.002207097635614743)
(4.998126833778237 0.002199523189226267 0.007400323009235983)
(4.998667944413866 -0.005948995195616025 0.01628107306988585)
(5.004793765296186 0.01005316836253022 -3.112793207355694e-05)
(5.002567642941973 0.01464831147174833 0.0006479941797320506)
(4.997553008547893 -0.00214787122059882 -0.01506507755150861)
(5.000391208774107 0.003708358240560217 -0.0005069753217087986)
(4.992861071081812 0.01484787318854144 0.007383401016720378)
(5.032358458836343 -0.008037745419810345 -0.004655353531528366)
(5.000779815216543 0.008712100363063238 -0.0001442521927215419)
(4.998817378120434 0.001931461021578128 0.001343302978939522)
(5.000245405286609 -0.03522039707727823 0.0943001053297535)
(4.269556604350187 0.3653818554358134 0.1835448747701125)
(5.000353324837171 0.0008766530377718637 -0.0003371017550041278)
(5.01491757486385 -0.105787535668618 -0.4293336910886159)
(5.250041749788021 0.05440543704697715 -0.09090681225264305)
(4.997252157303242 0.01931465095004028 -0.000272870541851465)
(4.999968517294723 0.003097556604317373 -0.001629089193077463)
(5.008234373003422 -0.02043864943186175 0.0103621203429956)
(5.016627403261618 -0.0009846373822182401 -0.0002698418827042368)
(5.000772402748067 0.0008040848723445584 -0.0008392218592822736)
(4.998933634885757 0.0007091885314607709 2.520345359621885e-06)
(4.996827062181559 0.01421479052467224 0.00507923228180321)
(5.000048414881453 0.0007941195584259159 -0.0002246346315907018)
(5.000189594796581 0.0007754404168732621 -0.0001318875263716479)
(4.999774185967577 0.0009634424415604743 0.000506175335177845)
(4.87075366618876 1.786696693374754 -0.1249665696415261)
(5.124042441666702 -0.4420332862528345 -0.5574345435502683)
(5.038445377855896 -0.002740660074461289 0.01820569791589139)
(-0.1276043842849713 -1.692809628466682 -4.359291625732205)
(4.980512258627275 0.3760393583006302 0.3177930413889016)
(5.000250129486084 0.0009165230438355906 -0.001032859105812099)
(5.000289925102759 0.001348018768917285 0.0001941754435543154)
(4.999347659251922 0.00138017237150481 6.59277863983474e-05)
(5.013432049504987 0.04591226748954506 -0.0332417824466505)
(4.999970284939151 0.001593427237583182 0.001515172299404071)
(4.997738320454634 0.00463278924713165 0.0004602517324657166)
(4.994231084887595 0.007992893542918765 -0.008718857439897006)
(4.982705769034231 0.02593366110185124 -0.04781361928034808)
(5.033620499178317 0.006823429394043952 -0.04098350808972655)
(5.000669776669289 0.009737511339959305 -0.002191337729345061)
(4.988000876411739 -0.02528797383420269 -0.03076736705590889)
(5.029387092469283 0.01750559427337365 0.02397167160916703)
(4.998476587168054 0.01692768479449776 0.0006297212685794181)
(4.999152089629209 0.000283048464241329 -0.004680156548212935)
(4.998601664861212 0.002907482018927701 -0.006903596259386116)
(5.000215686906396 0.0005736841954928919 0.0004827153917644978)
(5.000800717982054 0.004581245451182409 0.001901637756816992)
(4.99981572749592 0.01417861647850985 -0.001751455535108482)
(4.305728118089105 0.6786510320006206 0.5404143302805831)
(5.000394714087665 -0.0007522099139496298 -0.001204602547602061)
(5.016781050360946 -0.004911771153336249 -0.004941793518358288)
(4.999737093184135 0.001941973040383547 0.0007146868205549851)
(5.0391515964075 0.08926084756419696 0.2239542638699967)
(5.067233053895216 0.02173889848473449 -0.04424367262576712)
(5.043128741016115 0.02304031035865599 -0.008301357558899419)
(5.033606002316716 0.005356549383919278 -0.006822142254224692)
(5.000106716594354 0.005557015179667033 -0.001425912162811293)
(5.001353501980693 0.009059250639633958 0.004344107630612918)
(4.884332705347854 0.2333224341028402 0.4377768693221775)
(5.001963154975769 0.00162471496788954 -0.0003270656901105481)
(4.997769191406444 0.002372254615606699 -0.003087702633421282)
(5.186374722126949 0.1226572109462392 0.1078289706977061)
(5.000891197211105 0.003863651215304724 0.0006931683528249788)
(5.040396295290027 -0.003344106977730272 0.008145717196950201)
(4.962210358016488 -0.1261489817211545 -0.510230437957449)
(5.082896383720338 0.2188909080349382 -0.07349959205648481)
(4.9992858057491 0.009443036987343445 0.01136028392697483)
(4.999679163290145 0.001832623506810914 0.00114016279059371)
(4.99779367082351 0.01791123225151928 -0.00504801658746329)
(5.002726900440154 -0.001430255220314396 -0.007076129587718726)
(5.00032765250326 0.00176087177134929 -0.0002797795371815523)
(4.999941211452445 0.001364862730698142 -0.0003724436651539721)
(5.188247390138112 -0.07088813986001405 0.09821032816083416)
(5.0548466806126 0.001976015902333675 -0.03119315846336134)
(4.999849539044262 0.0009159483282199788 -0.002705533547442485)
(5.008447008358381 0.002289152629727621 -0.001132377260581366)
(4.996104411207249 0.009145738579168772 0.001781154729018233)
(5.000611429635394 -0.001683441539814426 -0.001793688258442999)
(5.002371639783947 -0.004343178445594939 0.002645873913421963)
(5.000701607902151 -0.001094153104280913 0.004526130703109013)
(5.050170649705365 -0.007040366850971622 -0.01718601204981224)
(5.000008849819388 0.001309761096406197 4.790365306774932e-05)
(5.010698686599731 0.02678994274531852 0.02576122315843759)
(5.029917152324872 0.007288301877167837 -0.01992006764812993)
(5.006913203543666 -0.002892568335028198 -0.006529378774913245)
(4.989736710204765 -0.005042043164858191 -0.003169001625787747)
(4.999761908365246 0.001427725340137885 -0.001657776461934836)
(5.004699874945171 -0.01211722380764807 -0.009367765068542392)
(4.41631449927918 -0.6801016455411653 0.4883515150206662)
(4.882018933253723 0.9641741412341395 -0.3153623977484923)
(5.308058836348047 0.4370068824954821 -0.1096865302435646)
(4.205110610220102 0.126645148441777 0.1675224653298737)
(3.100898319578206 -0.7775244260964629 -0.5358810613402535)
(4.99991284117469 0.001027429348198516 5.573859892526686e-05)
(5.020233734208905 -0.0002267577153506064 -0.007948894985555593)
(1.785288601662458 -1.37502674770038 0.1225283798720633)
(5.017686466285454 0.01321724848790391 -0.01181238151672073)
(4.999015841836771 0.001322560649349768 -0.001074355565613515)
(4.992015267498085 0.0001270337996638169 0.00309087192093479)
(4.988925554891907 -0.01689014713075838 0.008393213981217628)
(4.993476631646424 -0.00402268498964603 0.001464639469534969)
(5.000156972341736 0.003620835455555759 0.0003483398682626505)
(5.095198824011565 -0.02782130608923234 -0.04225813409070049)
(4.995115108332884 -0.002678154906465573 0.003681249134771599)
(4.999623977569598 0.001526245180323788 5.652466674439114e-05)
(4.999267240762857 0.009529478566860436 3.803840162776226e-05)
(5.025018035974938 -0.06500053055990736 -0.01184716981836448)
(5.011859915505498 -0.08920761536230437 -0.3795135868058058)
(5.10017797802697 0.3195594817332434 0.2416865826223338)
(5.035576148882634 0.284551858065923 0.08269178873022651)
(4.687289483951293 0.9857048692807475 0.612934483936899)
(5.156277648226802 0.2157511545306102 -0.04991042390556061)
(4.996414699150539 -0.002112451189119517 -0.0005601450946352262)
(5.002079354004231 -0.01238703668089748 -0.0193043764425052)
(4.999227295086671 -0.004348777058166044 -0.002283626203353615)
(5.006493285219415 0.006188236026048826 -0.08636568544262965)
(5.076620343418311 0.2540379133304115 -0.08350429208816987)
(4.999193971211688 0.003007568765668861 -0.004132573930434086)
(5.001217938627944 -0.001147407622964373 0.003114487416793584)
(5.014661891138927 -0.003423806864390971 -0.001279041520443417)
(5.019143067816969 0.1026307506480816 0.07635280592808692)
(5.001546955811017 0.0005707832653341359 -0.001815144550721236)
(5.001787835247828 0.0003190334333374465 -0.001148691352010855)
(4.344196203790388 -0.1320002705662349 -0.03971662045273361)
(5.000116892026565 0.001777281867244815 -1.879713714814648e-05)
(5.01717453935481 -0.002884880496766714 -0.001940248599081149)
(5.00008964226676 0.0009872481061434983 -0.001387371509937785)
(5.000096641616473 0.0007385143623166 -0.0008787087000949709)
(5.000741638632712 0.0008203041908468409 -1.431741462659658e-05)
(4.99996581786239 0.0007300757475646377 -0.0008841387093567983)
(5.000324969301141 0.0008439464303913945 0.0001228938787629104)
(5.004260999831388 -0.00216557933904714 0.004475418328817133)
(4.998164480696828 0.01471741367255034 0.0005783573639411386)
(4.999834238279599 0.001108732073954872 0.0002530510215101045)
(5.079696210775532 0.008297966350891665 -0.00907998631950435)
(5.000281389714424 0.0001386269760228141 -0.0001087792941436277)
(5.002085051977938 -0.002399991398764677 -0.002888708204383306)
(4.999638956566081 0.0006190679258654735 -0.0006034808434189955)
(4.999478713975313 0.00192877455125454 0.001985847149931766)
(5.024747684416365 0.0005368198404570823 -0.00628849329868512)
(5.040938857274798 -0.01312468798497651 -0.001491672972375637)
(4.996598605460687 0.001466695089912154 -0.07734950754662312)
(5.000109896090265 -0.0006645320034855642 -0.0008255615300272371)
(4.99965434923927 0.002430707694805457 -0.0008100090988665293)
(5.0099955201388 0.004129579777924137 -0.0009742108135144859)
(5.003147709259698 -0.0984885557876013 -0.02364084343679572)
(4.991865485015024 0.001965642299805145 0.003812362524052312)
(4.951942483977438 -0.03403337455364758 -0.05992799675856278)
(5.000715815395086 0.01455202386107454 -0.001004516290517813)
(5.015628249604712 -0.00503214245524823 -0.003128092610545305)
(5.000018034545535 0.0008060547961990968 -0.0009086114220687242)
(4.991436938451224 0.003116523948512253 0.004286519085663065)
(4.973291413527479 -0.02346616403162254 0.03499666967164673)
(4.996900182720478 0.003897512552146073 -0.04385464894089242)
(4.999791959848164 -0.0001642180115883092 -0.0005128081511664497)
(4.996375093831593 0.003850252049542053 -0.002389848909522344)
(5.000819367215079 0.0008203893749116064 0.00191170414555447)
(5.000475939303626 0.0008571187792277404 -0.0003890555257842028)
(4.99265040158904 -0.01881788580837137 -0.008784561462719869)
(5.000088420977567 0.00121220479325894 -0.000199788453057457)
(4.999813622910419 0.001035060940204832 4.564646304461971e-05)
(4.993744685377631 -0.0006885952117052029 -0.009096201412578752)
(5.00093916693288 -0.001120669641471024 -0.023326442667242)
(4.999545405467167 0.002778688915881969 0.002499471152471254)
(5.002188660239417 -0.001656195832555871 -0.007325420443565837)
(5.002007721052852 0.002521169172259957 -0.003672330799283779)
(4.997523402377011 -0.001291774979161333 -0.0008522285923446727)
(5.013433240437525 -0.008030705366088407 0.01145501745074925)
(5.03720237458996 0.02242164466794015 -0.01865028141942378)
(5.001504410140034 -6.302543007505635e-05 -0.002781494508001015)
(4.999832300445146 0.001763291391016112 -0.0002288363738101664)
(5.000421317199529 0.002056647934476218 0.0001546340537507817)
(5.202411507531106 -0.05299560158074271 -0.04853762438655609)
(5.006021095377578 0.004147690871268496 0.01010511092566438)
(4.995151693514672 -0.003962795372917834 -0.00824127113860619)
(4.986787417675252 0.00583237500877335 -0.005833717429037793)
(5.001491114672725 0.0002254420837180565 -0.002416833749866476)
(4.999089168418172 0.0005169770836265044 -7.623664804171981e-05)
(5.000374973377225 -0.06032025777641689 0.0414664385009875)
(5.001034149080286 0.0005441864106468585 -0.0002545609292398293)
(5.001103875030682 0.00279983861319689 0.005012973129465317)
(4.999950515086762 0.0003812183672555938 -0.0002038457798003734)
(5.001466549667057 -0.01512759681713209 0.001875938098133307)
(5.00157456477674 0.0006873448155824124 0.0001551841339347952)
(5.000621274519752 0.000528236621187577 -0.0002770463255389328)
(4.740063529508442 -0.03711345768184578 0.07712401362512661)
(5.02098571361079 -0.008991315655778384 -0.002218719190742545)
(5.000254753045033 0.005375297540349773 -0.008834080686610771)
(5.002551691307148 0.005544518252482712 0.005120277494218364)
(6.158434019013144 1.203613003405756 0.4078990220591765)
(5.025188959973987 -0.01225838497572124 -0.006571348617647294)
(4.970118384486238 -0.01271075531780599 0.01478096055457606)
(5.000463873716495 0.0009049753554156906 -0.0005499358375286214)
(5.000376466589123 0.006945778449764145 -0.002068372637383585)
(4.996913119497582 0.02490276825144529 0.001357610072067601)
(5.028926601948168 -0.004776911103339917 -0.002010014661274519)
(4.999904047911449 0.000967536957847828 0.0001041808133621664)
(4.998784260827121 0.0003321094674358484 0.0007608115065253929)
(5.000154996902995 0.00108615193579888 -0.0002536168482274692)
(5.000048288621872 0.0007185576529415319 -0.0007442796579099341)
(5.008112127252414 -0.006808705221694454 0.002458974926644015)
(5.013851728013629 -0.006121081339535365 -0.0006307152393033226)
(4.992947536156517 -0.03009343284984239 0.007212482652300627)
(5.235804247263509 0.01839591201962608 -0.03633850516844388)
(5.00020920584933 0.001958355607269782 0.0003692412541387504)
(5.022430135958265 0.04243423682548388 0.01157430591927722)
(5.039598152533297 -0.03119869619644465 0.001044124976709833)
(4.951810411778384 -0.01133469904821283 -0.0006552893833180368)
(4.981963309979754 -0.03178473892019905 -0.0274152087467984)
(5.001294301070334 -0.005246539812050831 -0.005877715353840051)
(4.999952678855742 0.002441206446845966 -0.0006011523419523425)
(5.000307364324041 0.0006752832694428649 0.0001212925593620701)
(4.993052012368906 0.01463857063591642 -0.0635430742236978)
(5.000298998405026 0.0009270876765326331 -0.0002753252029039702)
(4.999565586799969 0.000961547384505859 0.0003430076560365935)
(4.999549198993118 0.01027740526397828 -0.004811918905471019)
(4.999413664821286 0.001308583529984611 -0.0001953273922142518)
(4.999906378295378 0.0006197225327472428 -0.0004779113301769474)
(5.000062432813532 0.0007686859455018853 -3.271153624492724e-05)
(5.000082216182888 0.0003664886915173813 -0.001019198116282679)
(5.028070897162952 0.08641804875537956 0.07994226102457354)
(4.999932108416797 0.000680017403226628 0.0002679217453875256)
(4.985623265723392 0.009836693175950744 -0.0001491733507065387)
(5.000199427505488 0.01272174519923846 0.00330707506301744)
(5.00264460326612 -0.003660364120655486 -0.006301234367075306)
(4.993519673430844 0.0006263419395519592 -0.008446212650245153)
(4.999809895477394 0.001263670073721786 0.0002173373185927179)
(4.934527596224028 0.1184539751399104 -0.1862427676590114)
(4.998658974562141 -0.003549324505461483 -0.003697430755365297)
(4.998447391194834 0.001796051853624836 0.06525476421147296)
(5.005138401111202 -0.01179033080194383 0.002010514590513275)
(5.000645146894183 0.001190169715153998 -0.0006925782571365071)
(4.808479210270383 0.1542592299495178 0.2688373619275412)
(4.98365793216989 -0.002693199926172351 0.1222275126163742)
(5.005969970131309 -0.01644948920147592 -0.007454754189218642)
(4.995116967721566 0.004977933505984363 -0.1211652657753539)
(4.931021027120391 -0.03315578237665985 0.01409698979896569)
(4.999699575176251 -0.01312096853230242 -0.0009445141604358602)
(5.000459473098563 0.0009209044826499082 -0.0003239877986385978)
(4.983987906536341 0.008755863873340144 -0.00178075232160008)
(4.99873652452033 0.003860728476742282 0.008118681718540978)
(4.999855892882457 0.004299557213918951 0.0001187378987697934)
(4.99994892750611 0.0005265445446800492 -0.001889405025342889)
(4.999733177834999 0.001036037924444093 -0.006456893241375426)
(5.0111291991622 0.01404162921771261 0.004091327034727579)
(5.362513082411931 0.1447947342369408 0.2143302360730556)
(5.002080918564129 0.002134722364891039 -0.001263167035169474)
(5.007705059227769 0.0005953594917125892 0.007350795111018933)
(5.041943542069072 -0.01819961686907805 -0.005346617838588343)
(5.002406444176489 0.001367501485315961 0.005808068385098983)
(5.000929964374718 0.000859468156097935 0.001318998426942428)
(5.000236887587324 0.001127785668884035 -0.000564712930225277)
(5.00385219960843 0.2484811590548537 -0.2795651128467062)
(5.013516683341618 -0.0281371087957211 0.006662089503658299)
(4.998224355122137 0.001780027253321177 -0.001070623110885402)
(4.99987899770776 0.0009316423545547716 -9.705366677491216e-05)
(5.001630240094958 -0.0003234685564496539 -6.474313602215633e-05)
(4.999665456461559 0.0007464759509082633 -7.650502027251477e-05)
(4.504856547812677 -0.3113352747717593 -0.3718985895168863)
(4.079254346568514 0.6557215273108884 0.03477690504203414)
(5.088030991595335 0.02148765991066674 0.03042815625558888)
(4.998192897031299 -0.01622951729863019 -0.01295418538368766)
(5.035823980380833 0.2488899163143271 -0.1809354773449562)
(4.093339253961616 -0.8703104546702408 0.06311868623104758)
(3.846951722371859 0.389243698445602 -0.3151339744169297)
(5.001751297876282 0.001878499444340791 -0.001581638212674103)
(5.10794032439025 -0.04575202132049949 0.623987089074956)
(4.913883568518979 0.110935082691565 0.6788280941014623)
(5.00250610252317 0.003528783089208488 -0.00156494219914665)
(5.004457340234814 0.01201205023003647 -0.02525856980101459)
(14.26492192566223 -4.377880996376961 -1.184049317951398)
(3.184238017222351 0.6135566469913722 -0.7401399560689951)
(5.000267323130934 0.0007832469497133529 0.0002334541544374615)
(5.002069029675572 -0.009017109395905993 -0.003783463726075296)
(4.995064022187324 0.04245220598170369 0.02312516160847342)
(4.904703018684855 0.6248187650085083 -0.4969765121972755)
(5.048792332320645 0.3707571229913799 -0.1457953536549145)
(4.90491971151477 -0.04127061615430003 -0.009185369158614148)
(4.998846930745689 0.003158704524878107 -0.0005419060431008892)
(4.999990909720587 0.001013527659803197 -0.0001314817355885632)
(4.998911945372993 0.0008773496967628714 5.61333123579869e-05)
(4.998343918897111 -0.006605647400651475 -0.01735229722666785)
(5.002456527576032 0.001369656548287709 0.02394553008855689)
(5.008978816577174 9.34595714767508e-05 -0.02495858028427638)
(4.978956893352237 -0.005693030098874257 0.02034879906255902)
(5.183526906014637 0.009672878034811237 -0.4348016560362992)
(5.023147286546556 -0.003326332127963788 0.001958553017286854)
(3.781464550419489 1.748485120384608 -0.8674503661840716)
(4.997023533596844 -0.003151169597966625 0.006589423822170606)
(2.996228478719597 0.5860712977368541 0.3204672558640613)
(4.439136630581194 0.1466637624641203 0.4743228046687152)
(5.007096033697258 -0.003355530674159305 -0.00275193238378359)
(4.341783312732493 0.1715436442614399 -0.02814870135162221)
(5.005608239283459 -0.002781203123497162 -0.001012913616174601)
(4.538492778389023 0.2371636240725601 -0.02196679060178418)
(5.006151445051295 -0.01676635152782449 0.005213996222155337)
(4.775730470942096 0.148101838086447 -0.4123160862713554)
(3.32788293408335 0.1567622375811437 0.05065395705370446)
(4.981727484918109 0.003344961572741129 -0.01891173324009156)
(5.001275558244608 0.001214637544977835 0.001276781679956887)
(4.977988764206242 0.01949328427466982 0.0987732306669538)
(4.16329996707155 -0.3709842651319413 0.03408378991889234)
(4.999168098970626 -0.02063675706448422 0.01409138625302808)
(5.00011877473131 0.0001846711959206442 -0.0009332008966896619)
(5.000042512349744 0.001883373809578145 -0.001999530077332717)
(5.000351341306449 -0.0004633368949288665 -0.0005494822695224182)
(4.999531833829162 -0.0001156625354172248 -0.0002367572819980644)
(5.001400457537589 -0.002519168256232394 -0.008733579564826642)
(5.028208585768483 0.05668127293366976 -0.00907699656866863)
(5.000209977758843 0.000400116898635534 -0.000318005071211018)
(5.037184967714794 -0.02099266813664374 0.002554940666926292)
(5.001297348052447 -7.270340977996683e-05 -0.00252301979795988)
(4.975657635350363 0.02134289265574704 0.005473636155064737)
(3.111645711783946 0.2071704750290103 -0.3523755485223191)
(4.993129465584658 0.007790062576675203 0.002170093630907899)
(5.029652204390655 -0.0077638184370505 -0.00185949754216622)
(5.005265786213419 -0.006345678479369216 0.01424229173369747)
(5.653750624445823 -0.2740547813911402 1.010630401658598)
(5.018013411074406 -0.007045706950661321 -0.002183565374517836)
(4.999807944480286 0.0007850999050329148 -0.02591697586358927)
(5.301556222298871 -0.3660814157367342 -0.1297225665423927)
(4.996059378213132 0.002713606179786852 0.005489418469761208)
(4.995721771789396 0.002242317851928375 0.005864968309138914)
(5.007842029175083 -0.001411534053993485 -0.00314114253255265)
(4.089718769398918 0.3358822686806118 -0.08937302251582326)
(4.999860146610243 0.001473666091164373 0.00036522209141595)
(4.99938193866535 0.00141690255902428 -0.0002647244701647078)
(4.995924455388747 0.001190062671610861 0.003975510650178064)
(5.009135434703001 -0.01303315684199674 -0.04518330679966978)
(5.00052594191304 0.0008602315069078807 7.725676335281048e-05)
(4.999229281932651 0.00248805326108757 -0.001023196509613903)
(5.000239279378753 0.0007669674287691497 -0.000419761608504913)
(5.031889691812946 -0.04498431510066411 -0.04030952706741828)
(5.000480001926333 0.001067486979514294 0.0002095579477147194)
(4.999947561403506 0.0005969938853603357 4.231613390323607e-05)
(4.978841242698279 0.007589018318948036 0.009725213324915726)
(5.036810370269053 -0.02488903900052073 -0.0182493946557625)
(5.000379735565542 0.0007578156803800631 -4.896218421817224e-05)
(5.000230543719369 0.0007928947775549509 -3.378375144478918e-05)
(5.000309188262381 -0.007742906031115914 -0.001064980324943788)
(4.999841138016285 -0.0006030748372825401 -0.002048641317412548)
(5.000165104506531 0.0009795038687420404 0.0006399423877924862)
(5.000754581828091 0.0005818389658971358 0.001186681415854328)
(4.999811277325787 0.0001497802570350966 0.001085366500327715)
(4.999489241117392 0.001673065296146087 0.001561288364708936)
(4.999980643786786 0.002575365434943444 0.002341503577433263)
(4.999851227513423 0.0009241690638635832 0.0003850816510634269)
(5.000124722018558 0.001165995476243739 0.0003610657769613925)
(4.999539880347104 0.001450722163305649 -0.002640377356849046)
(4.999755513077614 -9.819357997007214e-05 -0.002110056126235445)
(4.941638345225492 0.03558045672039245 -0.01959678622093735)
(4.999345081872995 -0.0005733904734747402 -0.002089028116210244)
(5.01137486841499 0.0005113545054816781 -0.004356243871015896)
(5.002481310929071 0.00115259942627353 -0.001358271695254625)
(5.000256995412257 0.001342305912074327 -0.0005136246676099686)
(5.00036129122619 0.01276770532569869 0.03622195640972551)
(9.420576585715269 0.5484306040940501 -3.761394990727363)
(5.000450388050912 -0.0006736857209696942 -0.0220132399722238)
(5.034453513758123 0.0144711731707876 -0.02680725161650535)
(5.000531125258679 0.001026182702679093 -0.0008029696317932197)
(5.040851846486375 -0.05722982840054806 -0.01242556558838947)
(5.000236016003604 0.001287206872816581 -0.00164150763450571)
(4.998958419928431 0.01004808395053079 -0.01048635947575504)
(4.99506822420903 0.001265636632715099 -0.006747888947077029)
(5.001938571820772 0.01153692954701732 0.0003631974290426808)
(5.006253335150479 0.04055210706021332 -0.03960621888367444)
(4.997269342874994 0.006216659753685646 0.007669028187135624)
(4.968994366161557 -0.004202960886192203 -0.003384538809915716)
(5.001199601540142 0.001105892118878932 0.0006177149147639004)
(4.998538382148534 0.002763862335631978 6.304220069250214e-05)
(5.000158296883166 0.001022513210018666 0.0001403165558920735)
(5.461719817026642 -0.2005479606695862 0.8333462633627328)
(5.002989893531797 0.0002150724837537951 0.0003126264691868606)
(4.999159175013021 0.0007814159350038015 0.0005231758452093315)
(5.000535583726347 0.001180741235568522 0.0001995770972502994)
(5.000307556575282 -0.0003391690002345322 -0.001347838516769574)
(5.004035674455656 -0.003315227747787038 -0.001453109589714591)
(5.068514272618632 -0.0483512501090092 0.02063457585192574)
(5.000302658541646 0.001190415768550531 0.0005664485736155838)
(5.000386006516599 0.0009793088484509435 0.0001277546645173871)
(5.000107137767509 0.0004547122810902626 0.001280011251231358)
(5.000840597073936 0.0007140112784565177 0.0007501183480718553)
(5.000452975971375 0.0008903506955331593 -0.0007455634551416098)
(5.000586960848389 0.001048243082407425 -0.001079990727355429)
(5.000533097523872 0.001062225954992157 0.0008438458778337901)
(5.000603184551397 0.001175474716950963 0.0006729879112259402)
(5.000022598976921 0.001472017392072271 0.0002726732591131687)
(5.0003616883736 0.002008455917822994 0.0008031617406277755)
(4.988247329729306 0.01024983875655487 -0.007876797443476915)
(5.015137034439104 0.005582299590495544 0.08466212027137569)
(4.989772391325672 0.01047075297714416 -0.001445233390247254)
(4.988571241044486 0.007876672177440475 -0.01034005119640685)
(5.022777618851799 0.0156494309033798 0.01530637107323025)
(4.985095301171576 0.01249441033921699 0.0004520179771965992)
(4.999943482772019 0.0009503217261162292 0.0005385090965394665)
(4.979379241555699 0.002781304524596513 0.01409578516037875)
(4.998861912739497 0.003025295579179942 -1.625333416485989e-05)
(4.998722938813104 0.002419386523852178 -0.0006481168285183509)
(4.982524749210945 -0.0008982758282142894 0.002802812075122112)
(4.998314672594369 0.005683534962298938 0.002848953475602473)
(5.000422659988424 0.001220390799131747 -8.810055050599038e-05)
(4.995626373289594 0.005290178438243157 0.001911156326404388)
(4.998273153869764 0.0006247860606859504 0.0006343345545106929)
(5.001772462064324 -0.003417372614516842 -0.003007828025111571)
(4.999503207596013 0.001103713083751541 0.0006756616065945773)
(4.998329953740731 0.004375075796063837 -0.000267660955671856)
(4.998479340212004 0.006869853158451956 0.00196497668526772)
(5.009633062433315 -0.01229414734446962 -0.002383598194588081)
(4.973575982310531 -0.008695267819049102 -0.01025702622099332)
(5.004858048560771 0.0009998174550442482 -0.001705800690370331)
(4.995899733717454 0.001793194962873836 0.0003704210737711324)
(4.998190552583333 0.004978091198324819 -0.0004542527698224778)
(4.999290984651965 0.003539007949529488 0.0001539041386571633)
(4.999660952221588 0.002275130387032887 -6.30392092089832e-05)
(4.99929331006946 0.002355278985310306 0.0002497787217975755)
(5.025318247883091 0.04184882016941398 -0.01467528652966599)