/*--------------------------------*- C++ -*----------------------------------*\
| =========                 |                                                 |
| \\      /  F ield         | OpenFOAM: The Open Source CFD Toolbox           |
|  \\    /   O peration     | Version:  v1906                                 |
|   \\  /    A nd           | Web:      www.OpenFOAM.com                      |
|    \\/     M anipulation  |                                                 |
\*---------------------------------------------------------------------------*/
FoamFile
{
    version     2.0;
    format      ascii;
    class       volVectorField;
    location    "1.8";
    object      vorticity;
}
// * * * * * * * * * * * * * * * * * * * * * * * * * * * * * * * * * * * * * //

dimensions      [0 0 -1 0 0 0 0];


internalField   nonuniform List<vector> 
19632
(
(-0.01825089068888901 -0.00660724267041019 0.00428766736139876)
(0.004585923281085459 -0.003066669052230182 0.001605048166876848)
(-4.451859132335332e-05 -7.213402034812432e-05 -0.0001758968843880153)
(-2.763518915575077 -0.5508407775660316 -1.792291139831954)
(0.007113503809094403 -0.02156823501532293 -0.003056999753487666)
(-0.005542441350911054 -0.005590934048890565 0.002832675318259116)
(-0.0954290649594319 -0.06479235726939475 -0.08460575623760686)
(0.01147584683510882 0.002052200497169562 0.001376242407645264)
(0.006738694159376021 -0.005952806052184418 0.0006213219677475644)
(0.1096329374842731 0.02087268740242211 0.04590652183834167)
(0.07068571386056903 0.01337640503359683 -0.03123785396867381)
(0.007414925653388488 0.0170247610586523 0.002443731123673856)
(0.0004975655172644283 0.0003305581766845268 0.0002193210217119328)
(0.0004321890690860951 -0.0001824335592019514 -0.0001816166748616427)
(-0.01883594206993726 -0.002308877942912802 -0.002087004998915264)
(-0.0306377504386167 -0.008533727626255398 -0.1380638343716153)
(-0.006226940653678401 -0.001914219974437208 -0.002596909712730688)
(-0.04192999179740547 0.02142956298577396 0.01063345399618261)
(-0.0004551234758889044 0.0009548247160889811 8.022688904006684e-05)
(-0.001505662127380903 -0.000363573816396904 -0.002061645267091889)
(-0.1052193439097664 -0.03965316535658084 0.04698652101570328)
(0.7242610706508055 -2.807618033669713 -1.112885504264261)
(-0.6285202500543092 -0.5190613020796531 0.2097563355701302)
(-0.0008501124864939583 0.0006431166466024881 -0.0005279441338736486)
(-0.0009061139639008827 -0.0006299534044700919 -0.001674521431555573)
(-0.003774807579491501 -0.000709486434253809 0.001035358289342783)
(5.223837177084476e-05 -0.001661679812333558 0.005880572954908956)
(2.458978907443603 -3.472363589548373 -2.952971611035315)
(-0.01408557735461715 0.1023671491685075 -0.05578999436766494)
(0.0002203514682190486 -4.041101765217167e-05 0.0001589562232005987)
(0.001402725692995079 0.0002762412804001457 0.0002406104912402996)
(-0.002218675074232694 -0.0004319791921208328 0.0001758377582558265)
(0.02064696337959872 0.02495229376656904 -0.02588487769961485)
(-1.154552602571805 3.34981421534071 -2.462422859916479)
(-4.529033692577127e-05 0.0005262265515730816 -0.000680062783055083)
(0.0001510764331745995 7.986196828647157e-05 -7.797504135473218e-05)
(0.0003614399346068026 0.001253457492344654 0.001250995091922644)
(0.0001009393714256095 0.0005203566743101912 -0.0004556226033402963)
(-0.0006645139880114663 -6.847606040241336e-05 -0.0007829240317232013)
(0.01638154392802734 -0.001910295606205445 -0.00325021798873767)
(-0.0002128363448791932 -0.0003843000195761038 -0.002332395974207721)
(0.001826224282535155 0.002244699867566021 -0.001361097996723481)
(-0.04112113783583439 -0.00207208909715904 0.02639221597625711)
(2.508522384960078 -0.210850197155426 1.031860987822134)
(0.00204769805008314 0.0005752053930810439 -0.001094572450827988)
(-0.002626055079195734 0.001049133138017244 0.0002141811201580965)
(0.0002233037143247693 6.67010909064073e-05 -0.0003233274167057221)
(-7.863964012124312e-05 7.766360402055335e-05 -0.0001262925615320374)
(-0.03311930810695814 -0.01069880954217923 -0.01560150366487043)
(-0.01308436821434615 -0.006457331647962805 0.02264043187718594)
(0.01332349860682726 0.005385273515755888 0.001176919224491431)
(-0.008759348246525146 0.002901636885785263 0.004154458495673594)
(0.04052042380845829 0.01526491572930267 -0.01752855272033508)
(-0.00308318309961738 -0.001883576898084369 0.003697492033299694)
(-0.003340821731040902 0.006437309243505408 0.0001329351774184528)
(0.003964966020370926 0.00146087016702862 -0.002191490703940453)
(-0.000699276807692006 -0.0008442383188073869 0.001565051615493207)
(-0.00167271169582908 0.0009987880228132769 0.007996603662040865)
(-0.007447642562982169 -0.04046673976868201 -0.03099775939089286)
(0.03405821123372267 0.02237854392114821 0.03782311745129289)
(-0.006044743170887484 0.0006496353881769614 0.001697234420905521)
(-0.0001851791952805454 0.0008711086350880888 -4.492079258516769e-05)
(0.7499845653487183 3.155634836044719 -7.544551088124003)
(-3.898159514700374 -0.2603827058630305 -12.34273723380337)
(3.082078556289591e-05 7.643958070160227e-05 2.043477359249454e-05)
(0.6855976220779751 2.142496759921555 -0.7824644539026415)
(-0.1315994138181653 -1.524181752061645 -0.8980210799039038)
(-0.01705587893255099 0.001277995386950676 0.009221844821635568)
(-0.0007417852257797198 0.0002701350867589224 -0.0007186218464514722)
(0.003161063265469283 -0.001742935331146882 0.0007159137463803185)
(-0.002122335675980267 -0.002676748865556311 -0.002889540676228004)
(-7.208319646223124e-05 0.0001495511992931212 0.0001847635457997662)
(-0.0005320802037448273 0.0002098621304288448 -0.0006807575792097359)
(0.008642458976825756 -8.636136489018394e-05 0.006381747511344964)
(3.587230546459909e-05 -7.604182149483384e-05 -0.0001857078033017994)
(-0.0005026439657474927 -0.000316180394118871 0.000566174573416334)
(-0.0001494337367963937 -0.0001142013925152682 0.0001035866356234821)
(-0.02892480836668065 -0.07625460788876479 1.410112609101751)
(-1.273854829538163 3.397850342236707 -1.630982278003051)
(-0.004813339859794531 -0.007031366773474857 -0.02417744139820665)
(3.625118552574349 -2.846257753820534 -5.183791305766769)
(-1.784780263684737 0.1842064666275527 -0.05848438357788679)
(0.0001764382612364773 0.0002154761361198114 -0.0001630755091200006)
(0.0004178751296811258 -0.0003043198918733834 0.0001349720756184047)
(0.0007021964293961088 -0.0005780379853650667 -0.0003896947861070103)
(-0.00419747793055979 -0.02265328568834226 -0.002764308398675752)
(0.0007158330063899953 0.001139743775562457 0.001339756181511747)
(0.00127038125848469 -0.0008629352414858491 0.00319298944628406)
(0.001658344641963478 -0.0004523282468262649 -0.0001249712341342122)
(-0.02177055343933166 0.01114959464336053 -0.02093287287537906)
(-0.02876597344157357 0.04256098704843563 -0.0236056208623369)
(-0.004737845476907226 -0.0009856295418985165 0.004856826179874832)
(-0.00549938948448116 -0.006659930967739156 0.007848711020283602)
(-0.06255579465507731 -0.007655640090761069 0.01413635456829652)
(0.00264633735099264 -0.002095007249333701 -0.001005198469060016)
(0.002292331024367039 0.000543142256587877 3.041697104133058e-05)
(0.004913904943481449 0.0003355915317852715 0.0006774683922202429)
(-0.0001037431154245111 -3.004248311482951e-05 -0.0001352647169465296)
(0.003507248770489079 0.00258893803465342 -0.004333564973765353)
(-0.005262388950197035 0.001117879167282202 0.001351876392164327)
(0.5062416653451405 9.541588204138394 -0.4320000823518548)
(-0.003958929789892348 7.898383859710639e-05 -0.001411323572187506)
(0.01034555252658862 -0.0003978342651048785 -0.001898638376098592)
(-0.002716671335305838 -0.0002992126520212002 0.001014470805706529)
(0.321172478688387 -0.05527759482381398 -0.2155022150836258)
(-0.0395555541293833 -0.06823800511603893 -0.0824157740234723)
(-0.08991903560653462 0.1243026113026042 -0.06684500796974101)
(-0.0109709579975018 0.0491568201472387 -0.04134046733682796)
(-0.004337546729925729 0.0009143625649816549 -0.005157080469722493)
(-0.004657050635374894 0.0007427113007252735 0.006500773856030559)
(-1.09384606231664 1.333061462168132 -1.707820928982298)
(-0.001279892358708876 -0.001699830604709772 0.0004057521252567842)
(-0.000664407802909417 0.0001893870160608853 -0.0009745077837692026)
(0.3615473823572535 -1.119882737498872 -0.5535673954805085)
(-0.0009271857593492193 0.000229092109434449 0.003220555954904566)
(-0.01658813335504144 0.03092762928615452 -0.03045247876262375)
(-10.2252873241076 12.21533425104986 -5.56723216561236)
(0.01995262380148133 -0.1051431796703747 -0.2765224230644699)
(0.00494266559257005 0.007125815045629985 -0.01064679126345376)
(-0.001416405673355677 0.002386407729973169 0.0008354162155729812)
(-0.001014527177167868 -0.006793853404433364 -0.008424314891753749)
(-0.008199231159482569 -0.005477736001055988 0.001700860235796805)
(-0.0003616885531409808 -0.0002032473478882973 -0.0006295106314841445)
(-0.0001672864992705489 -0.000119564250619605 -0.0001212464191986871)
(0.7593580553886576 -0.3668378574519757 -0.1083679278443799)
(-0.0210602520959606 -0.01070405483079766 0.01662822213294069)
(0.002928965262971953 0.0006640677202905038 0.0006596382470103421)
(0.001311153961799233 -0.0009659709196561644 -0.002798787947490621)
(-0.003283113277339334 -0.02212149367380559 0.03719492539287036)
(-0.002453011910894761 0.0008907207675656311 -0.0006766749641435746)
(0.002134552682461873 0.00142179450703908 0.005636196442814753)
(-0.0002633491769179267 0.001967569956867941 0.0008067329727698987)
(0.1047849241251376 0.1147281183896942 -0.1136693830506492)
(0.0002654898944456808 -1.66729898874193e-06 7.353884696561137e-05)
(0.02621554553774331 0.02234025781275907 -0.01876934999306704)
(0.01360754680068306 0.01027909720078813 0.00512889470958819)
(-0.003687309896023864 -0.001770427596898117 0.001338602081284434)
(-0.001492937724868942 9.168037855216706e-05 0.002396752501521001)
(0.0004557697700197527 -0.00250888636622755 -0.001706093824855835)
(0.005913790271515227 -0.00166463637059523 0.002943146159237076)
(10.516688431398 -14.6216389939037 -46.39690449200589)
(-2.061069497860128 3.599953391271272 -7.096656633810735)
(-3.259590414930758 -7.313756086023545 -2.01665838367017)
(0.5523134982547406 12.26709587227263 -4.353919525378108)
(-7.231839617000702 8.201218276318089 -36.95108492516085)
(1.008317300796209e-05 -1.637234961098649e-05 -0.0001270361499894249)
(0.00118028426256909 -0.01188856688472284 0.0005026802403059144)
(-0.4766363852465119 0.6380412072868976 -6.033428313943793)
(0.003349019164461911 0.00322921622314309 0.004979215043678986)
(0.00193749893186042 0.0001208310482340811 -0.001119091348125272)
(-0.006249940733474691 0.0004316310142787364 -0.005106722289458935)
(-0.00199159886888854 -0.002618193816343041 -0.001266365185333907)
(-0.0002365239072877046 0.001231950693279077 0.0006306482371930848)
(0.0002493541092822864 6.677111329081339e-05 -0.001385888278024911)
(0.02136874016915934 0.1156954911785762 0.01294240295528318)
(-0.003044942216725632 -0.001678451298537414 -0.002145261966441793)
(1.039915366496014e-05 -0.0003405184105816971 0.0004509764508268436)
(-0.0003885220991371107 -0.00155148832180008 0.007209667398258931)
(-0.01560827447568637 -0.0260817959430165 0.01169061461606892)
(-4.672225980670314 8.115537127416717 -3.203686209861544)
(-0.5434169179361473 -4.197369833341736 -3.581996784136261)
(-4.740707725430145 -3.988449542139771 -3.17442350775727)
(6.190828956109157 -1.705224854053605 -7.169090432493535)
(-0.8241142584068097 -1.860408039496032 -0.287880668883111)
(-0.001947150394346699 -0.0009078171745958328 0.00299800867392533)
(-0.04129123868386123 0.006960858119304747 -0.03954182182791264)
(-0.002614053247051459 -0.0003358508308859472 0.0080864896963262)
(0.02268849591092634 0.0004868000978289727 -0.01660399090328459)
(0.1630907426574837 0.1617240810779232 -1.350833415176521)
(-0.0006707300812764993 0.000577272544556003 -0.001006309676584737)
(-0.006442368402034699 -0.005498776286240527 0.007351277421827872)
(0.001156117887490569 -0.001047921121702273 -0.001684323054493936)
(0.1572786799948975 -0.1028358122402941 0.09176075102094505)
(0.0002248669788505945 -0.000764662078203051 0.0001611340770378318)
(0.004832974436440741 -0.007532357579346533 0.006738532120381289)
(-0.02063153153886807 -0.1125949566295097 0.1862405003387537)
(0.005569394850913331 -0.002163095533788206 0.0003182305631078686)
(-0.000713115786565105 -0.0002093562720002488 0.006404621741106549)
(0.0006142902190731124 0.000340174364092395 -9.389377603881736e-05)
(-0.0004283341352962384 0.000553778047041618 -0.0002152864333423673)
(-0.000416941163284461 0.001089911557358206 -0.000113034854313193)
(0.0001921137056976683 -4.834204139491242e-05 -5.599399362863863e-05)
(-1.397395778826233e-05 0.0004153173480709908 -0.0003236741913393804)
(-0.001092260007141197 -0.01064676505850852 -0.0008490125214290065)
(-0.001656155584362436 -0.000665886119332928 0.009836029330941021)
(3.177957852477595e-05 -1.372189369259825e-05 -1.967888646188897e-05)
(0.003393364933586922 0.01809964184244733 -0.008171518959799359)
(-0.0009044157194262937 0.0004171684934718649 -0.0004723473217328876)
(-0.001533685083206415 -0.003670408607268982 0.0004661092955450737)
(1.717187798727799e-05 0.0002004749381489176 -7.907968706815071e-06)
(-0.000319459034226281 0.001951135312086425 -0.001016124766514045)
(0.01052855266651328 0.02539444391739874 -0.001897552599338382)
(0.02149212515094458 0.0197861877047491 0.001934676521881895)
(-0.01669681584676342 -0.02815666736133432 0.000403002894021183)
(-6.904394686404363e-05 0.0006913597926795249 0.001959793208980543)
(-1.336586903420202e-05 1.407601868830223e-05 -2.390022076834468e-05)
(0.00212498550796487 0.0002321154156027955 -0.001638075784784489)
(-1.746148373872175 -0.4835422465128498 -1.99040721897001)
(-0.0003171277327470834 -0.001408866269541685 -0.0001637237153710945)
(-0.1025592482681122 -0.04763361667577274 -0.009920998749534822)
(-0.001407785508803766 0.001142149915120325 -0.00150668949087566)
(-0.009074948316662869 0.002310226065345647 0.003835155636971458)
(0.0006596704822525571 -0.0001820355899251753 -0.0006181774296441557)
(0.01104487643106056 0.004644395113643695 -0.0001375348940758081)
(-0.2227956158062391 0.2141414354956139 -0.1550048276301289)
(0.03022627229548458 0.0127514968306865 -9.98981535264477e-05)
(0.001755357772756406 0.0001040118225362429 5.74389633794972e-06)
(-0.007581014072970019 0.0001646988609515585 -0.002847981375677997)
(-0.001489911283489209 5.090921291686358e-05 -0.003283241882667169)
(8.649839307756527e-05 -4.872024689742706e-05 -5.827739599315213e-05)
(0.0004719144239926935 -0.003245056322214834 0.004731188409944562)
(0.0002918250848489797 -7.502428015502379e-05 0.0002949835219434703)
(-0.0001242231632517631 -0.0002193473588865095 0.0002057614915371546)
(-0.00119125251050114 -0.001528724336182717 0.002372338244467603)
(-0.004603601613441803 -0.003409038648658381 0.0003746155078847844)
(0.00256511615541844 -0.0006300501673160124 0.0002438595225706374)
(-0.001562411460570889 -0.0001732176424891266 0.0002786709899945383)
(-0.007584142576683742 -0.0001739694274825847 -0.002923398325078502)
(0.003833188426029993 -0.002246018185244466 0.0004667800400497903)
(-0.05207691182322516 0.02344055391177729 -0.01157790864439359)
(-0.01772405713974948 -0.03141086144069616 -0.02205235534331698)
(0.006108138875394332 -0.005000249871591202 -0.002313195593077555)
(-0.001722847996474544 -0.0007750145045245433 0.0003731309065045442)
(-0.0002764071234987141 -1.289099483104734e-05 -0.0001710065033093018)
(0.06189566414304221 0.162054409055863 0.005434247344217828)
(0.0308258285902697 -0.01524066181247266 -0.01908683898068986)
(-0.011243648498067 0.02423336949559952 -0.0129593330729737)
(-0.001775305789496412 -0.003364096748503746 0.00451420110954564)
(0.0005928597693066679 0.000195255562439335 0.0001012432649599202)
(-0.0003478205265505491 -9.809715074529742e-05 -0.0002959109546484656)
(-0.02705722991687247 0.03837914505528846 0.0656570044145359)
(0.0003837114802825587 0.0003106075288984906 0.0002486386642708249)
(0.007984170135360708 0.004587699263470963 0.001891992570904202)
(-3.744417843576572e-05 0.0002406203128390521 9.291897258626529e-05)
(-0.00260438788474218 -0.0007737512170141432 0.0009821396679227717)
(9.877412217660004e-06 0.0002852093906768286 -0.001364559522707619)
(4.039231412290853e-06 3.381822014768356e-05 -1.688705793800344e-05)
(0.002155166833528045 0.004988546647850547 0.1048863660797323)
(0.01332618717779314 -0.01074237364513106 -0.0006219756656301793)
(0.004595934909288148 -3.028528760102903e-05 -0.001071194529758209)
(-0.001533269755937995 0.003569372182482038 4.992965338172198e-05)
(0.001055023087301044 0.4920725083580839 -0.9868380901912936)
(0.02131314594786006 0.0009572294681914591 0.0006772807323231407)
(-0.04108904772029339 -0.02439469307526597 -0.07303270218259944)
(-7.773942681444564e-05 -0.0002617678002533458 -6.255775463785202e-05)
(-0.01726297669460607 -0.01003456775555792 0.002895007595971064)
(0.003625986464571328 0.0003730740161193389 -0.004427421298505083)
(0.003295126104051799 -0.02367195994702758 0.008302455531762379)
(8.393279594359865e-05 -3.068525626201643e-05 9.009492960243922e-06)
(0.00109870443630719 0.001070284413879156 -0.0003739995335122191)
(-0.000134942055096994 1.024559201088991e-05 3.622437876115233e-06)
(0.0007118226459398593 -0.0001649078972412473 -0.001268547085505588)
(-0.01007911146913627 -0.01176846174547831 0.01078196036882303)
(-0.002235692966230144 0.001466234775817277 0.000136097252721336)
(0.002788150122425872 -0.002002531370154749 0.004175110501228868)
(-0.001223058178108409 -0.05145967785404612 -0.06351357066198304)
(7.2110557808263e-05 -1.507906350699172e-05 -0.002421898886330066)
(0.01784491476610485 0.01123987637244234 0.0007800332173449782)
(0.006849142258716115 -0.004019996376724596 -0.009529980629959545)
(0.04994502054782393 -0.03114147162507866 0.009515946889376035)
(0.00875526432166609 0.0009603151922897941 0.01857648281838242)
(0.0006780812732849165 -9.294332629544407e-05 0.0005392495447424919)
(0.00168064465486992 0.008990303564344885 -0.0008209723019617013)
(6.687760323113737e-05 0.000104302931764624 1.471032858203569e-05)
(0.007343285497529578 0.03225519023473571 0.02362182575191587)
(-0.000185511988485511 9.933306368251787e-07 9.177234721457683e-05)
(-0.0002947784602238885 0.0001146182749245211 -7.040410216663282e-05)
(-0.001891049854257148 -0.0006148332169007654 0.0004049355266663228)
(5.626234340185545e-05 -0.0003814961452149663 -1.882818820528918e-05)
(0.0002330632053335149 0.0002580047226258788 -0.0004702858678762155)
(-0.0002646195782638385 -5.444860913163737e-06 -6.060378209561267e-05)
(0.001153870511811273 -0.001085747630042754 0.0001198279047501927)
(0.1742890815442606 0.08995500441833314 -0.1300252267831875)
(-0.000319971726778002 8.630280930388072e-05 -0.0005948617227354543)
(-0.001186993718324002 0.06739904375494274 -0.0025170328553328)
(-0.009030427063406779 0.002213631867571043 0.01363734568171037)
(9.293744022936421e-06 -0.0005023588403165154 -0.0009114680374623608)
(-0.0004867985520173685 -0.0005153953880138489 -3.806476362776972e-05)
(0.0001534485199938618 -0.0001175311109629183 -0.0001315750521172226)
(-0.0767605018689681 -0.2208054514610295 -0.08104388386126313)
(0.004818633607313487 -0.003135341750745486 0.002789459578387935)
(0.009377245565506514 -0.01386051245993706 -0.007320888341961557)
(0.0111071303177947 0.003487219184562217 0.005162410624252062)
(-0.0004226251620070349 -7.567207803780768e-05 0.0001486939519386868)
(2.529257425450164 7.431348910742798 -0.3055934877452828)
(0.09171774918750498 0.008456898592806395 0.003975782215558729)
(-0.0001221020373260484 0.001691405211379341 0.003113127734858344)
(0.0434068205866133 -0.02908056373718833 -0.0003634819851205771)
(0.06480639439263029 0.04056004415172915 0.005282405558300587)
(0.00470721552921072 0.002743011802873254 -0.0007948267510697674)
(0.0003827072982935766 -4.712313394587924e-05 9.527882891713645e-05)
(-0.0006855433590173834 -0.00375613215835709 -0.0005657412506834482)
(0.0130281430422942 0.006406794515713095 -0.0006668496495014669)
(-0.0003913968088144105 -0.0002567665904956941 -0.001603232208479237)
(-0.001338277455994392 -0.001704448708144044 0.001182187769743531)
(-0.002623422856488093 -0.001468838771957216 -0.0007320925623534028)
(0.001276151749828802 0.03691141059859025 0.0463291992189805)
(0.07117269888938431 -0.1041913765049946 0.05795999163093041)
(0.002618749145561738 -0.004455161661390279 0.00269072476247078)
(-0.01916840116755703 0.007163655309247279 0.005825019090176231)
(-0.01955409310201357 0.03204997221681865 0.02318463462010489)
(-0.02399573531078538 -0.0023782342408281 0.005408232165637237)
(0.001782181192431696 -0.0009439864129230413 -0.0008919836945517168)
(-0.000223868182616652 -3.678527503028455e-05 8.132139613651753e-05)
(-1.448464555919148 -1.42219851458653 -0.02845016342609098)
(0.002809408705621334 0.001296159840499384 0.003220285505140825)
(-0.0007884574477034592 0.001243179046328057 0.000604471045851953)
(1.353455503553934e-05 -9.922598676008316e-05 0.0002074232015194265)
(0.005635203582243184 -0.003542271622249802 0.003509125504394049)
(0.0002010185690997615 -1.018969391097545e-05 -1.34964025529663e-05)
(-4.997402492650645 -64.66480245588613 -0.3186805903593237)
(5.205501310543006 -55.16521473911431 4.962520274160656)
(-0.04870589438159015 -0.02526406357408211 0.05704264711140298)
(0.000149052285675094 0.000541382862751856 -0.002085708877702334)
(3.229605295759945 -3.680082953251493 -7.7083023198097)
(-0.1766829616796111 -5.056329966007156 -18.83733203257412)
(0.6208789726572255 -50.75251661742764 -12.18002008515223)
(-0.005000309347221477 -0.001392931020319351 -0.002242918293765154)
(7.701871778339366 -7.728482739816373 -3.105928965583781)
(-4.42773419572615 -8.241803883015969 -65.24588210133267)
(-0.005561714540426174 0.0001830557270716554 -0.008299914941630678)
(0.02639567772163418 0.001362704878246253 0.04501243778244057)
(0.03999574121838672 3.191387289907825 0.3476868086940126)
(-11.82580899322672 -5.667442208133942 -58.08721857160171)
(4.534198275715954e-05 -0.0001181217510550884 -0.0001256156027444874)
(0.0008238306127867388 0.0002543034154403041 -0.0004279320998186413)
(-0.1094556358519034 0.04177932144744237 -0.01104527144718863)
(0.5191090664079523 -9.940286018419224 -6.906544030394245)
(-7.315660556284574 3.976105784708716 -7.562460303940082)
(0.01057998565455996 -0.01367522031300115 0.05585848954737837)
(0.0003451906367710732 0.0006181202239659289 -0.0004894525723431125)
(0.0001355166092389043 0.0001550943200135548 0.0003926083478256918)
(0.0003079044405036564 0.0002140771534282016 -0.0001444065517246852)
(0.001471706294597312 -0.0003485802245247695 -0.0003590479215703025)
(0.006632545019006217 -0.00688052296540756 0.001052862406544623)
(0.009286895026043943 -0.004868925749412199 0.001595381337793202)
(0.0003352444546234892 -0.01698550785629985 -0.03969983210523292)
(11.84741421605071 11.57881316603708 -5.085345926012844)
(0.001879189161625841 -0.03381465958023943 -0.01078152814007798)
(-3.202517815446915 5.805839962524027 -61.2340780200744)
(-0.00112904210760942 0.001371989801344344 0.002469235647322621)
(-5.800310651837297 62.42206997719953 -1.940837902712574)
(-6.130496415079952 78.42153541601955 -12.35603884254748)
(0.002965042376643776 0.0006935499164850892 0.0009621405975385843)
(2.248166229791005 6.471240866868222 -3.058752437516707)
(0.0004732381069555812 -4.275982215279405e-05 -0.0007294012610852176)
(-0.0782751878867044 -0.1243740446199705 -0.2301060390839741)
(-0.001286694279006234 0.002242667179058671 -0.000472939865744542)
(-0.3616700393831185 0.2081240666120154 -0.5848582763891661)
(-0.688792726837955 45.48585972729755 1.950520830585851)
(-0.007964403505797113 -0.01068421614045172 0.000454985286741275)
(-0.0003151333429287782 0.0004109045624024727 -0.0006217949580259766)
(-0.03182298953659538 -0.01122951856271768 -0.001828471890607411)
(3.245066378170265 -3.360811560202872 -2.256787073358557)
(-0.004662624137878829 0.009207525987106755 0.005828567576466124)
(-0.002035146088965931 0.000240973195164515 -0.0009119270267221307)
(5.907475856813289e-05 -0.0003315387150003884 -0.0001494926735834339)
(0.0005051989932434664 0.001897142786504007 -0.0032627783522604)
(-0.0006110475948480341 0.0002432126468877637 0.0001917369532130993)
(0.01180179868268996 0.004153359879503785 -0.0003670935115891674)
(0.03058928285373119 -0.0003097446329354616 -0.015009373217657)
(-0.0002410884960191931 -0.0006079569512133035 0.0007177852066310523)
(-0.002878774332460379 -0.005908819666794875 -0.02316775260726679)
(0.0002459835787251909 0.000122552800966973 -5.619024086492921e-05)
(-0.02569212060118123 0.001084961784702176 -0.1519915601067187)
(0.1760437156052665 0.1959335652684235 -0.4626193145083306)
(-0.001860617392823714 4.39049670794856e-05 -0.001190421841666916)
(-0.0126845298527918 -0.01993633455100737 -0.01507026016431228)
(0.00675890356435697 -0.01410770788061882 0.004085373781801279)
(1.545567610014175 1.335873050925767 -0.9640014451083885)
(-0.001974638006584806 -0.002209983467604215 -0.009654729938421713)
(0.00331215652384254 -0.004346711301362464 0.0002018038865684845)
(-0.167200482443548 0.3947373820054086 -0.5903481003848353)
(-0.0001150418506293737 -5.811957908099833e-05 0.0001949864573671377)
(0.0009578803859199768 0.001540407533174991 -0.0001442265811272514)
(-0.0004168501889630638 -0.001279944670245417 0.0001237564370846307)
(5.731207036199294 21.98385682393746 2.201292856721055)
(-0.0003650999405120054 0.000101414093388388 -7.102407961882868e-05)
(-0.001591703021656244 -0.0005647528502671737 0.0003099799941651641)
(0.002708249390772399 -0.001690991649815594 -0.001212751690060161)
(0.0910428572586359 0.1659292929767065 0.3246135504822192)
(-0.0001260377779674555 -8.632769410281976e-05 0.0002564935026224892)
(-0.001364185446612034 0.0006956853431155356 -6.359378525131756e-05)
(9.724322754639106e-05 1.279922615347424e-05 -0.000135451739054366)
(-0.08699074021332956 -0.04389557699453195 0.1150209953485972)
(-0.0002499709016514592 -5.298624101287589e-05 -3.244125817110003e-05)
(-0.0001981846342109254 -0.0001948142674732784 -0.0001053567923925122)
(0.002734337126030016 -0.002622822987161922 0.008847560605804076)
(-0.03484238322879529 -0.08440623101351546 0.1059762929526437)
(0.0001978861518916662 0.0001643068311842733 -0.0001873452041734242)
(-5.592198080103015e-05 -5.431929542576913e-05 -0.0001625135339531696)
(0.005909342097065936 0.004310288034029224 0.01078553929923353)
(-0.0003664338304556695 -0.0004397525070521712 -0.0003932746709046647)
(-0.0002869390839802319 0.0002282666706711492 -0.0001645880123797884)
(-0.0002120061773393923 0.0006497562669868983 -0.0001062933936038206)
(8.863334245666363e-05 0.0002252917899552109 0.000188211473725439)
(-0.0005518023030993858 -0.0003581884364110095 0.001088979625012764)
(-0.00021544316111789 3.969906294292933e-05 -0.001024520480074288)
(-0.0001323457223124737 -3.386609232117433e-05 0.0001265065295902547)
(0.0007069249370224846 0.0002728461676153029 0.0001419799736935264)
(-0.0001828913791957165 0.0005091368107706131 0.0001265275151232338)
(0.0007382640339516261 -0.0008599636237273121 0.0008350957038951432)
(0.009905106677372967 -0.03982050858646045 0.1000323648690561)
(0.0006896145269549932 -0.0002954996150285365 0.0005462564180036176)
(0.001823417658837583 -0.0004589144084649942 0.001198632834045633)
(0.0003115499546775645 0.0001502335503689234 -6.179020377161481e-05)
(0.0001953249783702852 3.913126288166492e-05 -9.947313648778832e-05)
(0.003152212960337477 0.009217203958957799 -0.0005664270407048362)
(2.502086478600237 1.185223448603831 1.986223430444329)
(-0.01094433654660599 -0.0003164282602519922 -0.0004789599397104907)
(0.1423574191640509 0.01612535232925171 0.03731221700426728)
(-0.0001460942270895155 -3.288375751002984e-05 -0.0001448691368822376)
(0.1017528755218848 -0.06853942044002755 0.03822330112568061)
(0.0003490857105260752 0.0004650493088397581 0.0003121537070413419)
(0.01861976074121095 -0.002400425427497275 0.00100349607457845)
(0.003692225286281256 -0.003731453756211055 -0.003946086290174114)
(-0.004187103043754406 -0.001389257168030428 -0.002426746332678451)
(0.01497955261248293 0.0004961220008936965 0.006070956867151582)
(-0.004419182682948272 0.0009786192037887064 -0.002015445012204365)
(0.01094088532276823 -0.008680344968672281 0.002236234926426594)
(0.001087189580352137 0.001490120684354418 0.0003072981944707384)
(-0.0001968102566736156 -0.0005057880052571548 1.831544541632164e-05)
(0.000144927397265953 0.0001701190022376782 -0.0001283998430398862)
(0.6839557727804235 -1.625465535650046 -0.6745172945887221)
(-1.457844993155762e-05 -0.000300140827237654 0.002097718862624935)
(0.003233892218177044 0.0004433802141518725 -0.001778371645392717)
(-0.0002189253053327589 -3.712357756701222e-05 0.0001511860432272613)
(-0.001450645147795754 -0.002742663109555207 -0.001147690695802528)
(0.004644639283017218 0.001296481642545574 -0.00972296342568987)
(0.05034260197189726 0.07078691667374332 -0.1649930646461092)
(7.523480948819293e-05 0.0003434407245259621 -0.0002704632968731359)
(-0.0001452072373467139 -6.986996382154649e-05 9.252848364906563e-06)
(0.0001978107705135382 0.000117983807459952 -0.0008212518399999459)
(0.0001200785480848674 6.727832892786917e-05 0.0002428443607765774)
(-0.0003426564370942603 0.0001025905470011928 -5.252504247954247e-06)
(0.0001268502949812959 -0.000194120026053894 -6.532322898498622e-05)
(0.0001333829204983377 -0.000162713785965912 -0.0001967502896941562)
(-0.0003838364213883946 -0.0003601133100653428 1.006186893493639e-06)
(3.881801551573353e-05 1.284586607429235e-05 -0.0001477127748823567)
(-0.0005809556455856858 -0.0005091198567443153 2.017784952092845e-05)
(-0.002862802670105897 0.005386740637137554 0.001436117098310041)
(-0.02596403311713717 0.03012477263681226 0.01797630648307421)
(0.004622209418517655 -0.0002673052105557588 0.002057045371177778)