/*--------------------------------*- C++ -*----------------------------------*\
| =========                 |                                                 |
| \\      /  F ield         | OpenFOAM: The Open Source CFD Toolbox           |
|  \\    /   O peration     | Version:  v1906                                 |
|   \\  /    A nd           | Web:      www.OpenFOAM.com                      |
|    \\/     M anipulation  |                                                 |
\*---------------------------------------------------------------------------*/
FoamFile
{
    version     2.0;
    format      ascii;
    class       surfaceScalarField;
    location    "1.9";
    object      phi;
}
// * * * * * * * * * * * * * * * * * * * * * * * * * * * * * * * * * * * * * //

dimensions      [0 3 -1 0 0 0 0];
oriented        oriented;


internalField   nonuniform List<scalar> 
37380
(
-0.3749709381440361
0.9960949238552875
-2.774377026980089
2.153253041237296
-5.249812650536709
0.8331299225222069
52.38847888048604
-47.97179615248021
-18.28577687795599
21.92032846379292
-22.79706374595617
19.16251216020095
16.81047864195306
18.25621929760652
-18.54726895267817
-16.51942898687942
-5.08079916243351
16.72572541563774
2.814332377638631
-14.45925863083177
9.371251877953886
28.05858767113087
-20.93224963922208
-16.49758990982405
-10.2234829700667
-24.83766655056383
44.43240139860092
6.963242190521978
-2.988001677001568
7.619651371515547
-11.5948918852468
9.636668724089446
0.4350880940138753
-7.42358359750884
-2.648173220646574
-8.94459555261683
7.630795008630553
-3.177087206237414
4.490887749883154
-7.527325757599859
-7.278633991851753
14.80167782611922
44.37259151396716
-10.69649359738631
-22.31262123467536
-11.36347668188467
0.8605164801185395
4.834939677081336
6.951215161527168
-24.11633679300829
12.33018195440386
-14.93996119398487
23.74085305336664
-3.410847420741939
-5.390044438672234
-1.496125598134717
-0.9553262854340132
20.44399633653475
-17.99254445268824
4.407744481209105
-0.007106095664461564
-19.34059957953258
21.1261352802065
13.41283569175391
-10.79811791858752
-14.15095443101956
-9.91466621187452
-1.605356128805742
25.67097677174074
-17.93230825861566
2.279196449742943
0.3324442543310952
15.32066755435591
-0.08464838209878801
13.58608714388506
-6.538196571461012
7.282608881996223
2.746441172114392
2.537799159630853
-12.566849214564
13.57792744922389
-1.558530583728871
8.268514347093975
16.64880435398965
-3.791183420836338
-8.333689009870547
15.12828181302829
11.10618063393111
-17.90077343746896
-6.216006462832357
-2.200627909056945
8.85172246566454
-9.70747930267048
5.610061035895293
-6.410564891207753
10.50798315740936
-3.220787220334166
-15.90260110612083
0.7814122515183278
18.34197607489151
-5.087731441238823
-16.72287701470216
6.414992657024364
15.39561579893298
13.99444844783967
19.53255586249248
-0.909318914979922
-32.61768539535588
-10.14729534583443
7.742164361913358
3.927290248370089
-1.522159264436313
20.80186778977921
0.3870075634697931
-24.40966257358522
-17.59221492154825
-25.33610289527968
19.0768205989283
23.85149721803959
-14.33763672868861
15.42695604856824
19.71254846992161
8.56054763704355
-8.7505117645004
12.97375298512187
-12.78378885763546
-8.039887655746513
10.58443240548182
-12.92426629691491
10.37972154720518
-23.74601221282519
7.431484595240235
-9.026154284036313
25.34068190210685
9.286845875146829
8.764356276537056
-18.05345380020873
4.572687964041694
2.624379027637951
-10.185068668912
9.072543852233522
-7.311945174372866
7.526247197291113
-27.41100216564258
1.954094875425029
24.23721103400829
1.219696256157079
1.466471496548232
1.29542573991587
16.37627653102982
-12.78847552736793
-3.133598914189999
-0.4542020894607558
9.136956441887687
-23.37993028171694
14.85060109077461
-0.6076272509460497
9.224476198203886
-11.83972823714698
28.12835360280461
-25.51310156383826
19.28468949603594
-8.665864972934219
-8.230541371893629
-2.38828315113417
18.90370012330467
-18.98137317193963
-0.8609745233065895
0.9386475720506698
4.828229333442472
6.95870387578262
8.373480268310786
9.405113668281546
-16.67289256746755
-1.04034735607624
8.308126255329697
-1.885274194393437
29.90222307125093
-2.929497700856673
-25.08745117595211
-15.5692818798424
-9.511291680963614
10.22432193857867
14.85625162225256
-0.1602480796410765
-12.23517811629179
12.38937318300783
27.85417535222168
3.216325182027996
-10.7445474168391
-20.32595311740429
12.31476424616477
-6.317363599906229
-4.649419983617991
-1.34798066267885
37.04774929069607
-25.51866049166315
-34.52268718363223
22.99359838472363
0.1786235575267
-28.6537493120837
-1.034202898104896
29.50932865274636
-16.10616594124774
13.5493488912248
6.824366016981128
-4.26754896725797
13.96178520917671
0.3417011837975226
-17.24822802874941
2.944741635967246
-22.18069675166171
15.41700872663749
9.949944851806045
-3.186256826724484
22.84299113743918
-22.06919438326726
-15.38226684410931
14.6084700899539
0.396640898266762
6.646193982325664
-23.84137851345839
16.79854363288959
6.187708531508884
-8.331273454877309
-16.82931033180898
18.97287525519447
-22.63720906360522
2.172890016552977
20.07213156586732
0.3921874811396646
-6.744303881320993
-11.48165722685954
25.64156004227624
-7.415598934085459
-29.03284438410992
-16.99422908500027
17.00132106500719
29.02575240416318
-21.78164221128932
7.075063951976857
0.5996904118818789
14.10688784744321
13.88767196973949
-21.00392759861362
-20.29474653689001
-11.07771788925962
16.29805793797497
-9.219383428756792
3.999043380047495
13.53470599497945
-18.65458091191091
14.96621337797152
-9.846338460965727
-21.8323087883599
30.72231147907922
-24.8831741709196
15.99317148028963
23.17834802511925
7.006168495176097
-27.69664594318013
-2.487870577117965
-16.79471518843626
-3.738551987148446
12.19073025236073
8.342536923250966
-1.321139867046684
5.198385883792215
6.177530520515954
-7.820849019476163
-0.1156525270837028
13.08171081147493
-27.26953218787463
14.30347390363376
7.027191729371968
-16.32129702638439
18.77715171641527
-17.14421024192015
26.86736327358929
-9.725752307438995
-11.24615376436712
-10.39715304382
21.64821039068372
24.59117192782704
-10.47144748924862
-0.2320524688608834
13.5157664998652
11.33781265543895
2.665049656784095
-27.51862881204719
-20.91051832102333
8.135793181492424
6.56204216180944
6.212682978022906
4.440220060737132
4.83167647369832
14.39805179730183
-23.66994833176062
-7.856983116272506
-12.41662708412231
2.365194061166365
17.9084161393934
10.4546335372481
0.7760504212653782
-15.83430538285702
4.603621424305034
-33.10594592836173
-1.699435445342818
8.320402018099909
26.48497935531962
-24.35434963763392
3.868568556718207
-12.6201648474956
-16.21709993003951
-1.056066399157655
30.45630841439541
-13.18314208518491
-15.4439267644292
15.93472257099955
-0.5015496388027844
-4.162292580466302
-12.62167426016921
18.4336548616701
15.51473967198305
-3.145634447201992
-1.414189525708912
-10.95491569915464
-6.597860221973368
5.863703809137146
-0.9576273863523964
-4.925363235321183
-0.7148696005343409
5.879056736633533
-0.204421477344876
-14.55837306525349
15.03712573405092
-12.69496491684262
12.21621224806114
-0.8290096983658022
-7.657504871374957
6.245335629029529
-11.0445401989303
-19.34074079794447
-3.469146525943537
6.592787393851794
-14.25540754032235
-0.3053838782411538
-3.376060628375475
7.930543782027528
13.10594317673681
-17.66042633081095
-0.4423495527419239
18.53038338538824
-18.09016466156885
18.99213569985451
13.24069154343809
-21.82754766912008
-10.40527957414788
-38.04381637732816
0.06879029529099999
20.90880996173066
17.06621612033347
4.410673475165299
-30.70748973769281
-1.881940752077052
28.17875701463583
29.2163032236261
-25.17102197097344
0.3653922225298409
-0.1830240598842345
-14.27354524841439
-10.7557125072484
25.21228181581933
-13.35865872241588
-2.622293713840244
18.28080011496617
-2.299847678705542
-26.78870621526222
23.43073644356724
-30.65547318703248
34.01344295879441
11.85275576232654
-5.759873624042733
21.20550402283994
-18.55072116003131
-7.671377223401703
-7.468223045985606
15.1363548084801
11.27215516999963
-13.52178870543039
13.92712652653177
-11.67749299106999
-20.17814162459895
11.5662698621291
5.869393780726997
2.742477981455535
-4.966329489339539
20.55569289288876
3.25907509863283
-18.84843850221869
-17.00323478010186
12.53416110986105
-5.14098308454032
9.610056754394604
-9.905010138207164
0.779126775422614
-3.102261778278277
1.036071001960446
1.007196107503397
-7.253914265295646
5.210647155606575
2.460692889819883
-5.91457877889867
-13.22656098500015
-17.66651416765406
29.3121964593665
-10.17745042129835
-1.468231870358486
7.055947462746876
1.206361112012733
-7.226237573043549
-19.50730455605246
-12.20600035728552
16.88312852540094
14.830176387978
-1.722528943137617
8.1613598358482
17.76983460367552
-37.31133460686189
11.38014016734915
4.978519565746036
-3.317259842241551
-9.164095335312386
0.2988742771064012
6.802606148224388
15.0661420466903
-14.12875721526742
-7.739990979700475
1.583470296758535
-7.549701919624106
-15.7987903055647
6.964618715046387
15.45719512611019
-6.623023535504607
23.13258160917923
2.747948559448594
-18.85829515798213
-7.022235010619
-6.79777862553923
-0.5999767175302498
-13.51276297774503
10.76594629471053
0.7823203802114405
-5.734120975821151
-5.814145699220208
19.00950054946756
-18.3984852456673
23.11490847303758
-23.72592377682217
-6.080442841063073
-12.15069703706204
1.547409018371938
16.6837308598491
-0.2511162597207305
-13.07088076341078
13.31717479276122
17.27742165816556
12.6671223167375
-6.994507237128111
-22.95003673837745
13.12252193292731
-1.803902443943084
21.67785392763765
-32.99647341659259
-14.45941838575384
4.273281169718673
-18.35651753522355
14.10901183140747
-0.02577546655767641
-24.7038581711935
-11.80931507021167
-3.028635986149955
16.66144488946516
-12.84284970976771
-0.7899591937417767
20.66576270813305
-16.42441134152834
8.881170566344462
-9.020832155627627
9.104283236349993
-32.43769435115318
16.83949973851575
10.60384366981402
4.994350942831684
1.70755329398155
-2.543255829720679
0.3500215646095396
0.4856809709131094
17.57038034430475
-10.62956210605133
-24.69600670089559
17.75518846264769
-6.41500915360542
9.621513739367158
-17.66679960842261
19.61124403876528
-11.56595816970442
-8.715720189405884
7.684747098171351
-27.67600573128647
28.70697882229409
-7.717011498717555
23.53734083416515
-2.685521919958843
-13.13480741544227
-9.702900991403361
5.735083927497635
-24.24891018355471
28.21672724729799
17.9448407297068
-9.182856246250156
-21.15501582171052
22.24375485480552
-18.2119747454478
6.232701506665678
-25.71283440675604
26.08368587221434
-6.60355297217053
6.522252616025309
-29.94846782542612
7.874680112391574
15.55153509700395
-0.451628142820183
-0.3928023244962388
0.9175827357013047
-0.07315226884992954
-12.14797598110313
5.745781013143336
7.941067211709266
7.828431996786771
25.28634012664951
14.21143423578916
-19.62274947774604
-19.87502488475211
-2.087585201756738
1.367890918082415
-8.301137872237955
20.27151235374239
-0.2729094452916719
-20.00064770782554
9.239459555259929
17.98648112296071
-12.96762845082321
-14.17267158302129
9.15381891092278
-16.55826892879094
-2.223640152486365
24.43594032573944
-5.654031244438833
-8.66353315948869
12.23317165664506
-20.12790742592653
-23.466179226301
30.50677493222438
-2.761386606536461
-4.279209099423325
-2.648584255113185
-5.062737908830599
-1.642944012496281
9.354266176252741
-1.319904798502014
26.74432333746025
-25.42546584438016
-10.65734050409682
-29.74719206962626
16.93835334744113
-10.13587937992487
-4.887385793305277
-6.270218416256122
13.81189838094609
10.35287629048509
-20.79614872971571
10.44082350639372
-8.88160308129013
20.46986130974861
0.6345704577757634
32.49904073276272
-15.56234663618676
-17.57126455433513
-9.763518902344529
19.86697241255441
-10.10487918705224
-13.10163883069337
28.19736495225371
-3.619138052699761
-10.0775415674715
11.04809536478214
14.93447887669609
-9.895314107766231
-2.396281629442817
-2.642883139491616
-6.415742964540921
-14.34910087319693
21.66975764601839
-0.9049138082769359
9.381649840027594
9.166143699994958
-5.743236725129536
28.95780715440551
5.99598180551434
-29.21055223511113
-24.52950449459847
0.1342749708093078
24.39370889335148
20.10295382544673
0.7565269587449374
-1.536400482771242
-19.32308030140925
25.5160784304194
-16.99368618096278
7.121019304540504
-15.64341155390001
-4.082433303708707
13.50542534178905
-4.426822138268198
-4.996169899896202
16.70923306979504
5.947313071924342
-10.34600250610778
-12.31054363570096
-4.114809543896001
6.510664296579685
15.12195952814638
-17.51781428082162
12.4429462328575
-10.7998024165849
22.36116477604345
-24.00430859231078
-0.003493680753289115
-0.03497282864420722
15.55424743522888
-15.5157809258066
3.174108135732612
5.91721518244942
1.674622976495006
0.01244296264063785
-20.13109173448284
20.08617535628876
0.03247341555861014
21.65677667453288
12.92101326589764
-22.75854962018989
-11.81924032015469
-8.413170130038113
-7.629345835453131
-2.015771284109056
18.05828724960543
-6.429966850379067
25.16593479842265
-15.68060027955508
-3.055367668388224
-11.32273218845049
30.63548849177456
-11.39594973059216
-7.91680657262781
16.18934553866539
-15.22037822720723
0.7412227635009767
-1.710190074876097
-1.922237860185575
-1.305851530592073
19.41743492949774
15.92657863997829
-22.12032605165082
-13.09071902463889
19.28446643630762
19.12227221845284
7.103525979567839
-23.69579903905225
-2.529999158915829
2.979103779813926
-20.02591407759887
17.04489270513718
14.3020314256057
-16.60257961650337
10.64906284932595
-8.348514658328536
22.35657433163742
-0.6383277582335707
-22.31198029106469
0.593733717668034
-19.05333999873594
19.9305859425474
-2.79948380392982
1.576194411326229
-17.92885985069828
15.87582884288665
0.4768365964454028
16.71917228284829
9.201241330496037
-8.927240321953011
-13.10887088955404
13.15584545789694
-0.05010300211589107
-18.66263968840499
5.599636031969679
15.03669373790228
-1.973690081460074
18.48252515892711
-8.314805299890354
-10.21044878514738
-9.660035868114633
12.83830040147802
10.36214013855355
-27.59183001501268
-3.269444815255698
2.765126530830516
28.09614829968132
0.03301765370164281
-18.52091848425512
18.48514504203765
14.99883330604921
-26.43463359439601
16.82045592051069
-5.384655632157749
5.657420980793503
-5.461559028836293
-15.12700712765882
14.93114517577325
20.08203727992762
15.09568711208511
-14.90621203825794
5.774489379319085
1.724197010464006
8.699132582202907
-24.84095456037223
35.69948709177601
-2.831075990833014
-8.02745654046581
-14.65602904867853
35.70901760027291
-32.54019649293447
11.48720794134937
1.189058548967424
-21.70603828940274
3.002848156963744
17.51413158348712
-13.56657082830767
-9.101593219573916
30.78832999413956
-8.120165946310717
8.732006395408568
8.050552099922633
9.234912274244262
8.218541693495526
-17.45887856439086
-1.44365854189216
-27.37577391109537
29.42682316664827
-0.6073907136492296
21.77605395645394
-0.1446875733465597
-21.63277569248924
-20.0193957442092
14.20281478281501
6.501469293010552
-0.6848883319326136
21.06026988412551
-20.35569396129615
-11.67997938845272
10.97540346562415
-17.91590826157629
-15.29620736165319
20.1133956970809
13.0987199261522
-13.92438860038157
8.625319927140579
-14.83748908564348
20.13655775888221
9.973691731670067
-21.69063213575978
7.770136660845381
10.31230394698881
-12.23421503850892
-5.848225569307124
2.39203427024746
7.868633336918324
-25.61159247104996
4.933253127758267
1.198518987564841
19.47982035563741
3.834725863617445
-19.30434597329446
-5.641670344506743
21.11129045414711
-12.61276235064125
13.22970659613468
-15.15048473107724
14.53354048563638
12.27365160929508
-12.13841368762816
8.663970143741262
-8.799208065314158
-14.82442504567301
-5.598689551731474
6.24656158404294
14.17655301342571
-11.69731144229379
7.378802914048491
27.45109013744522
-1.659538882034764
-24.76148845843963
2.468610171301986
23.95241716923017
-15.46495725619172
-0.02408732141838413
15.48482615701419
-1.418760361065428
13.41977873962274
-12.00264720902387
-26.44032784695123
22.42050424873192
-1.094091232320453
5.113914830555754
-17.16529670574573
0.5192828835397607
17.42156061854478
-0.7755467962808043
-20.97516914821485
0.06292237430168876
10.77503465836825
29.24306472843634
12.44875504641076
-25.61666547670768
-16.07515429807785
10.20411102331833
9.005412229739335
-15.72229204891147
-18.37354846464858
10.78578326702188
23.31005724655097
13.44259347053503
-15.944918157945
10.27246134827641
28.08247010019951
-22.28486693378743
-20.23398037245834
14.43637720606021
-17.59350270044279
-10.15574462215931
14.36274562278074
13.386501699686
9.511283370939037
-22.23824707862651
-2.995328341170481
-10.32173258834184
-6.411150806884829
16.72970009403983
-12.74326244434276
14.95422846102101
15.60446861391977
-17.81543463072795
0.3781879740314004
-0.2270930263303874
18.68835264756688
-18.83944759525434
-18.73950703899376
0.08958043249990601
18.64160194226474
-1.306512632822485
-14.92566730931954
25.74346331314011
18.74151151756392
-7.350388715848097
-12.69763543444537
-14.92539853156467
11.47481800959082
30.27945755955643
-23.01276405143131
-18.35230875889348
-8.581730123914099
12.00837157351732
-8.745932676306484
1.839433380959483
-7.067880817518168
13.974380112869
-21.38708935368466
10.78816685382514
10.59626591421253
18.54877320755611
-5.844205006050844
8.054246095843975
-20.75881429735043
7.525156008111477
34.53687478437728
-3.042469536618664
-39.01956125611623
-0.9941074472082747
-3.421187310328325
16.89641602437366
0.8439413241544241
-14.31917003816507
6.125477949707194
-2.436300102504569
15.88738549078037
-19.5765633380716
-15.73391989381327
31.9028789751874
-2.143315663106231
-14.02564341826364
0.6414542328693439
-0.8430538986981381
31.20881120622257
-31.00721154018597
9.626139543834206
-0.5560282807863343
11.36539451212648
1.715568995737945
1.748525157926705
-14.82948866575558
-3.965410572362428
3.275327389394432
6.569139919480039
-15.61144358834689
18.68163106356032
-1.35162926900664
-1.718558205973303
-20.66097169184525
22.47056760549479
-5.730902723637242
18.53672823630154
-19.53713985158144
6.73131433896396
-1.455079067755868
7.11580803887468
0.6124910418888972
31.2259281035273
-3.257993347201228
-28.58042579783869
-12.29798828585435
1.010528785071768
13.61594799769692
-1.114152142763831
15.23463267634595
-27.73642853107457
-25.18519752616074
10.80830974731675
1.959931780317362
12.41695599877231
-6.881662355129595
-0.2880999277417075
-8.690607629263521
-9.749169829884181
3.85898322006995
19.82170166548656
-4.281788979252721
-29.53314876854831
-10.95940218752506
10.84943972991074
-0.2362872139832216
-17.17403154479582
38.87217384284886
-21.4618550840058
-33.26628995116936
17.80757955414598
-1.969880710958345
17.4285911079705
-0.06347125540028356
-20.27439005496685
0.100773267712514
20.23708804266501
12.85979207970076
-34.87924278125068
12.75147515662574
9.267975544992654
-17.62460736108159
6.055357832747569
-15.33738360437187
15.32823058172652
11.46352259557269
21.968567829929
-25.95978904732984
-7.4723013781317
0.1082326559293649
-22.6402936287006
-0.08136610236936791
22.61342707517624
-9.74933878977008
25.2509651823552
-26.13946304228318
10.63783664970638
2.863349273046668
-15.3728136490698
4.682258083402574
7.827206292579887
1.481126166223449
31.15614095288485
-21.17374452351116
11.98870924737879
-11.28435429055077
-6.571691701245548
5.867336744430343
-5.678109876414243
-4.077443857987549
24.55779582720541
-14.80224209280797
-35.53740310107046
5.728015385845023
2.521065035819427
27.28832267942458
9.365200410092196
19.35197379153295
-9.313056400203191
21.97486623918892
17.98484055225007
-25.67452563024699
-14.28518116127546
15.16738008254111
-15.49576171546317
-5.242492718094477
5.570874351019071
-11.4615382801211
21.3761531344319
-9.916728040736281
28.06366868124715
-23.01015915190972
-21.65580535057294
16.60229582185055
4.907012621430368
-18.99027425930632
12.44465089343802
1.638610744446106
-1.032626411620728
24.00599488418245
4.126515161527429
-27.09988363407838
2.138480337513219
39.71096741831291
-14.95417924257669
-26.89526851362944
-0.2763987721198498
3.026158071573407
29.05803535322249
-31.80779465239412
6.604413638201794
2.745949311815786
-14.70392020252338
5.35355725251186
-4.885863729180429
15.24701049695215
-2.186109296208707
-8.175037471074253
-15.99485607927666
-9.680349897571535
3.412648912419374
22.26255706440872
4.729706907474513
-19.71072403147425
-5.452999232194404
20.43401635618994
6.916956876626132
14.10183428285759
1.071893835764848
5.346736938437107
-8.506215976201664
8.678254514027048
10.8750478321583
-0.6787445561700177
-18.87455778996921
-0.536720922958785
5.447430764475717
-6.633238784803791
10.51183657503532
2.929228494394929
24.48101657687914
-16.0457696178303
-12.48933811266165
4.054091153594662
0.6664443025110826
-0.7270559968087914
-23.46108330710637
23.52169500153695
-2.668922517788842
11.12045334017004
-13.12417261327433
4.672641791011859
-10.23968975336148
34.52652059986619
-2.630054171913181
3.978364670084537
7.669969614810647
0.07620537081207385
-0.08343598541680526
0.5811914854195029
-0.5739608709763352
11.64987303501246
3.659303718146033
2.849586232271444
11.1895379447158
-0.1588050158973658
-1.420676174390715
19.39000756927064
4.879298718788736
0.2856006451405202
-24.55490693361092
2.83390337029454
-7.435313318201965
33.14851351438869
-28.5471035667756
-4.948862541199174
-17.1510743527971
1.075832892718454
2.722417025493798
13.3528244346309
17.03398628572883
-0.8862483335499973
-16.1506100171106
3.5445391950328
-17.68044051470422
20.90017119638694
-6.764269876554747
-14.87956889539319
17.21877423534939
16.55453157532472
-18.89373691522122
-41.73584282963439
-10.34270862052654
24.4492372916003
27.62931415865284
16.49420818567414
4.601131260766335
-20.72693767129958
-0.3684017748779337
-37.27756367493311
27.87248262651852
9.642309465467831
-0.2372284176541586
20.15941436707421
-4.183639644620512
-25.05323024171489
9.077455519279113
16.99567404999024
18.87300927756036
-19.37447514132742
-12.05592927123725
4.932565067804841
-11.36744676981918
18.49081097326788
4.289015577896625
-3.651416615976369
-1.729407003843689
1.091808041195414
-34.2623941550186
37.48909914760743
1.375843146487123
-4.602548139087332
28.96178526705988
-21.61108803828585
17.28653086876793
-24.63722809750621
-15.23503955858267
7.568753105750888
24.66196050306779
9.950732554658481
-16.27987791745837
13.53286958116114
-7.203724218348799
3.422684797655357
-27.07529180251068
16.80361718016938
6.848989824617783
4.776452152119154
-3.703393202166222
-14.03458475127619
12.96152580128677
-12.25150620778813
1.617597909995415
18.92855987506686
-2.653940409989836
-24.07068227485526
7.796062809771316
-6.940355890109791
-20.23168562196381
0.08173668885798566
27.09030482323572
7.376373427008771
20.66190290148988
-9.109716453372583
-14.3230078421777
1.921044309882549
12.39784901000842
17.595179225589
-18.51752765922153
7.407205953219687
-6.484857519549315
-24.02270479008841
15.73887602317183
13.29951919890685
-5.015690432033019
-3.669293243653021
3.061127715898197
-19.2457387967902
19.85390432459461
0.6873180265207082
-12.15953922361587
6.602191450508417
4.87002974660552
-15.67103761032766
6.516752898162506
10.52760720314562
-1.373322490981476
-14.46775372299378
23.85762095819922
10.00014033398425
-10.08311804834499
28.02888944272837
-9.516178956734828
-8.429592437639121
-5.26778254574975
4.020041360614055
24.46159259522502
-23.21385141002115
-32.09930144301263
8.293887593182703
20.65607765227858
3.14933619755442
-24.35048254235362
0.1584635153067378
-10.17397582813372
34.36599485527348
27.55818651684331
14.93405267288453
-14.45287009310718
-28.03936909655705
-1.57177973654585
-7.676417070820066
21.56592419853429
-12.31772739123995
-9.503452569790193
31.50660373964299
-21.38579869628975
-0.6173524735517203
11.74791742993511
15.5097966062886
0.04338978072084712
-27.30110381684977
1.674702104844098
-23.4314132298275
-1.569180916562055
23.32589204155173
16.15197250315259
-13.27905061497238
-18.77552299431494
-0.4416052363693779
14.22779954301126
-13.79008509402175
-22.13810791041685
10.98883031979398
11.1472831592059
12.12115920017926
-22.62059228644786
-7.733315125803421
18.23274821218231
-16.6940255272693
13.84629746824607
2.845274846738289
-9.069065870923342
12.43064686478528
18.06961564698656
-21.4311966407273
-15.99668746449628
-2.812493030489573
17.50332896448414
0.8084157068398344
11.91765647844645
-24.30707422036678
11.58100203510704
-17.64030526872508
12.73643191289772
-11.09281410858481
-2.989201534497694
1.240985464557412
-18.4276519003843
20.17586797040719
5.796921880849936
11.85280539775457
12.99419772269955
-30.64392500123762
18.7483471526405
-2.137851176025141
-8.170301778089126
-8.440194198611721
7.497942866216789
-2.469381096642359
-21.38903154789703
16.36046977832526
8.913784693507798
-28.67282052039349
10.68996995604702
-4.787360572580006
-13.03907721117996
-2.729358498833864
20.55579628273489
-7.997511348182432
19.09508632642747
1.884237617115193
-12.98181259532954
3.023400665083587
13.84312647691096
2.051563625661449
3.925774760184746
-23.35005376784387
15.16239995610141
4.261879051586511
18.80895705688009
-15.0223610478959
1.522471975560184
-5.309067984540649
-14.46165604892058
1.137531964725159
-2.050650128184363
15.37477421187929
17.39190072766118
5.841978960688682
-19.0683597635171
-4.165519924796096
2.628717247595402
5.123116421300397
14.47558238622497
-22.22741605521114
20.67062109270935
0.1985554240499374
-25.46386741092971
4.594690893310571
29.36841268731867
-18.69803359755155
17.94502502288163
-28.6154041127795
4.623842991789955
11.37303658111686
1.783807581939131
-30.0049792784752
-3.225226684756619
20.45348841860674
12.776717544713
-4.135993637304929
0.3528938401055849
19.23303423965462
-15.44993444244657
6.926184236181247
9.382643667366223
4.801703184670798
-21.11053108819072
12.15869647580335
-7.07652447084817
-18.07837390339916
12.99620189849749
-18.49802845838561
10.04990333909748
16.12428886183896
-7.676163742535127
-18.57632371385506
19.89905599252873
9.113311874960749
-10.43604415364794
-7.93824571658181
25.55118507696636
-0.4194441941755319
-17.19349516630381
-21.0438906523967
-3.348998007399072
22.78008505729365
1.612803602541522
-2.326470308482304
19.29383296424481
2.829941156877955
-22.36792263975622
-6.847758997334123
3.604089165918245
-26.91828515933849
26.23793809747974
-13.78740666128072
0.9059159197268792
-41.85016227330711
6.8795166562924
-18.67543884715181
34.56713474428001
-22.77121255340416
17.70136067956964
-41.64785074746226
-13.69475995938955
37.6412500273095
26.43637470756195
-3.631028507238593
-22.39244979028692
-0.41289641001245
4.306693136299107
-1.436819568046685
27.70748737753612
-30.57736094575803
24.22134122189442
-26.40130822781187
-1.141576387743841
3.321543393668214
15.52856796434801
-12.55331002058104
-24.30850050215847
21.33324255877323
-5.594264041876557
-12.91422202167882
14.29393740542506
4.214548658130394
33.37133560594935
-16.99065333991022
-19.75299496279029
3.372312696457844
-11.46547612743648
1.614642582032115
12.46611563320196
-2.615282087905896
8.014652032841532
9.713193166690555
0.0702828879147236
-6.283361443135015
-9.831688202702765
30.86216810480225
-14.74711845894828
9.918099266540239
-20.30814609045241
9.020542153385435
1.369504670520584
-19.44903506769658
25.2486443814537
3.453426130348446
-9.253035444162622
14.29083048797589
20.46350291947725
0.8162025277643116
-35.5705359352321
-27.19476018837603
-8.581494429794727
-11.61032226928257
47.38657688770581
37.74797680225578
-11.30152493694768
2.567914809976547
-29.01436667518868
15.63599810379648
-36.028333554651
-8.402822900117304
28.7951583510165
21.44617353200934
-12.43757554947524
6.169081263546362
-15.17767924603469
-20.2702607723211
0.08257789854941136
-3.02474960076526
23.21243247457964
-21.26239992610446
0.09677574584343925
7.463813708507763
13.70181047178296
-10.93875676290225
-20.11428874115649
18.79794786111033
12.25509764310002
14.01791886815078
0.2431723226721434
-14.26306144849405
-14.45266008854781
18.78104731731874
33.41958957344724
-18.08315242764364
26.03238747648066
19.38246694757424
-27.33170199529606
18.93076443216824
-0.2245506380497488
0.2859219057431903
-10.60871833904568
-9.667326470223861
2.454675583930739
-23.01890285546221
-6.630532916764126
-21.15195847579731
10.52370863910549
-0.3105069261500088
3.485386670249575
14.95322207095025
-17.24955019220019
37.0105281552716
-16.99808911764384
-15.1082346555917
-4.904204381623665
-4.204854834262178
10.88605230058947
-26.79548620739326
14.20905639997158
3.808921210227767
1.712027184907875
-19.73000479502434
1.270023584760855
8.807568309721576
10.58494251560759
-20.66253441034986
2.256537565388784
-3.674534313181745
0.5411277954068212
0.8768689524919926
6.398359445407767
13.00774336011505
-1.270567470404212
8.745176710925076
7.949906851950225
-0.3188070318450767
-3.651431029854432
-6.71913131583548
20.16596348126043
-9.795401135643271
-42.67960823051312
9.513717112492021
15.08273869094559
1.64768770220947
-19.68364967896616
0.9348704544224787
17.10109152256326
-10.8293447467836
20.94142115315263
2.359592319555577
-12.47166872602921
26.99460144092674
11.53241665095147
11.17338863599704
-49.70040672772524
11.33890484506941
5.467743322095541
-15.80975608111619
-0.9968920860558088
-23.53210392889643
-5.925150094184351
1.339110691758081
28.11814333139525
1.206946439541418
0.5912434071563727
-25.3302937755326
-15.29997080095835
-5.584658415107124
-8.043129944531978
15.42717325272091
-15.93696457110472
2.157479020863883
16.25346870059615
2.765694401710104
0.8593068116202993
-19.87846991394752
38.53588568659137
-20.80653240218926
3.579165913047423
-21.30851919744029
20.42003836997333
-27.2143976645399
6.7925303134349
-9.092167839781746
29.67502682469652
-1.463074404581575
-19.11978458032324
-17.34336829236044
-5.428659722665334
14.9377523159288
7.834275699125899
6.837258327206427
-6.665750408147502
-2.549951863823033
18.28313760264255