/*--------------------------------*- C++ -*----------------------------------*\
| =========                 |                                                 |
| \\      /  F ield         | OpenFOAM: The Open Source CFD Toolbox           |
|  \\    /   O peration     | Version:  v1906                                 |
|   \\  /    A nd           | Web:      www.OpenFOAM.com                      |
|    \\/     M anipulation  |                                                 |
\*---------------------------------------------------------------------------*/
FoamFile
{
    version     2.0;
    format      ascii;
    class       volVectorField;
    location    "1.9";
    object      U;
}
// * * * * * * * * * * * * * * * * * * * * * * * * * * * * * * * * * * * * * //

dimensions      [0 1 -1 0 0 0 0];


internalField   nonuniform List<vector> 
19632
(
(5.008464942662017 0.03885569049657935 0.01319365708317289)
(4.998869530508504 0.00175262032200031 -0.003224076331349776)
(5.000898730887389 -0.0002701408729813251 -0.0001908741482507854)
(5.00118319742098 0.003949521051329207 -0.002647049240706116)
(4.999223252080782 0.002485771443222549 -0.001122831301871682)
(4.994014778225126 -0.008156700501946184 0.009817907179796774)
(4.993775285610217 0.02524419090971051 -0.006631164069088868)
(5.000990487311759 0.003104116454798149 -0.003558080244947882)
(5.000872343043603 0.01036964172275987 0.007969223694154145)
(5.007351511977292 0.02579809795190582 -0.001857735499515992)
(4.9987511246063 0.05330582772845797 0.002249237290942412)
(4.994082857333696 0.002009322693245933 0.004791099818802354)
(5.002957275042589 0.007828033137777871 0.003702024385832076)
(4.997411113290851 -0.0009932724787652101 -0.0003154520160361804)
(4.999410607477166 0.002378406256051395 0.00095109695673342)
(4.999161940713846 0.002393397599090345 0.0005747016082985813)
(4.999913654177663 0.00362229654904558 -0.000186345759547114)
(4.999449940321406 0.001974623580427816 -0.000469823244193952)
(5.000096459515119 -0.001747415878379263 0.0005630915141026763)
(4.997770209967352 0.004299605835983094 -0.001657728931400702)
(5.000573588563205 0.005872252260808728 0.005663752875557476)
(4.996853723564951 0.007481996442970368 0.01061507672005259)
(5.016511027978469 -0.04475691795211324 0.008150845861550711)
(4.999560701228514 0.001545611767596621 -0.001117378058614047)
(4.999616020741094 0.002363133534189062 0.0001970324764339609)
(5.005873376782821 0.004173325232506142 0.007631506899747392)
(5.002763177067307 0.01164559506464825 8.844123419050598e-05)
(4.999494720095774 0.001463462714617899 0.0006848062214377687)
(5.001138403558318 0.001619538087393269 0.008687746127296949)
(5.00032467480399 0.001189499139367979 -0.0004377681007026676)
(4.999276261528149 0.0007842852498579772 0.000960727465085514)
(4.998991012057916 0.003923278832591824 -0.003934516438289133)
(4.99817891191358 0.002275551441105497 -0.002715623748061697)
(4.99683436931827 0.002165057670998741 -0.0009387354644784502)
(4.999700423412826 0.001109346935845848 -4.333027856271908e-05)
(5.001651670394414 0.0008304786977625161 0.003727167865079126)
(4.998540080806257 0.003631621717962533 0.002479184018301234)
(4.996566225166325 0.01974758813469809 0.00181269902902427)
(5.000583256250705 0.009310398449634822 0.006552929792390944)
(4.998087406509304 0.005972924143298361 0.0007360762911989094)
(4.999785119145092 0.001263359322426409 -0.001966236252670814)
(4.998150310123349 0.004358356955045442 0.01772282131345895)
(4.988846584293142 0.009396242302046063 0.008820735607837832)
(5.000765903403587 0.003281542081385383 0.001152433789973815)
(4.999397631973121 0.001456044746695633 -0.00181082219534527)
(4.996436850846949 0.007977903821893157 -0.002984286872492815)
(5.001229860796163 0.00322924904558285 0.008032925389341935)
(4.990021018304563 -0.001443370023689037 0.009862296026798089)
(5.007681669940616 0.003894478261565957 -0.008197852451377021)
(5.000366094520606 -5.366488751808445e-05 -0.002992215334244564)
(4.978004629593002 -0.003979682459030428 -0.008548512979848195)
(4.988926168526643 0.01421494680848281 0.05219110808764939)
(4.996897737392172 0.01396821289822414 0.009153192949361221)
(4.998707756926565 0.0119423465375623 -0.001981649032430036)
(4.991582039060984 0.005566002225213577 -0.005096187256106134)
(5.011772133079696 0.01010925038325158 0.002627832119580543)
(5.003232072591772 0.009808137424740434 -0.0004053148500246622)
(5.002403513471227 -0.0111832881306608 0.003523642123436776)
(4.993426304676054 -0.01841128748921679 -0.02144378249903144)
(4.99941497578752 0.003766680293913172 -0.0003397693346861547)
(5.001291290206796 0.001460747088091888 -0.001359833223933386)
(5.004338605119907 0.004358015732972157 -0.0007162442109439756)
(4.99959360255261 0.00126230708596664 -0.0004255805608433657)
(4.996905687167506 0.001599549353371038 0.01004271921967705)
(5.00132459294365 -0.00606169572383048 0.006577741802096121)
(5.000306354673747 0.0004243514899676729 0.0006853825415383847)
(5.003071143679588 -0.0003161592012808918 -0.0003156980065175871)
(4.998259666540781 -0.002010484743641489 0.005832553963818634)
(5.000210256830658 0.01147716872217064 0.01140472543534489)
(4.997106031237542 -0.00830243932933784 0.02101633448781398)
(4.999256337451737 0.0009888918190067138 -9.864943210746409e-06)
(4.978634904817426 0.007853652550550828 0.001167648160631798)
(4.963208125769876 -0.001152016103723549 0.003475289962819005)
(5.003175416871517 0.009759278585716125 0.01237439951400958)
(4.999444136129656 0.0007274483437763059 -0.002443675851502156)
(5.000778057224146 -0.003278839101559193 -0.01399027565008441)
(4.998615967823948 0.002960929249754241 -0.02553527791446695)
(4.992199421574466 -0.006551139723228124 -0.06450388974541552)
(4.999984816967472 0.0004517950059990895 0.0006248423419713135)
(4.99809402446919 0.004962774455437022 0.008956896417435939)
(4.990679842615211 0.009673871276768451 -0.008823075067776791)
(5.011089068168615 -0.004031188466089515 -0.0106290564780924)
(4.999142181227086 0.005962502995160327 0.002485174024929072)
(4.998517389359394 -0.004691193840341233 -0.003925991983249081)
(4.994360460916019 0.005225269221477056 0.004820734893047466)
(4.991007369123461 0.004479399988869964 0.003426725015749674)
(4.997957810139788 -0.003446992180864128 0.004184290862558183)
(5.001237296606431 -0.01271098856128733 -0.09894948624852318)
(4.98875636260405 0.01066261457286137 -0.006945635057748426)
(4.999187939719639 0.002630134779023826 -0.001738164770484624)
(5.008678420520466 0.004184227762433574 0.001727739339626496)
(5.004312295641699 0.01465873672131555 0.01049250931860542)
(5.005524471072611 0.0006833842284567007 0.01255232952928884)
(4.999482119240615 0.005451121274075703 -0.002368585921119662)
(5.003114735404754 0.01293707406117185 0.02656172049843846)
(5.003264449565648 0.01183506361859614 0.01074747600985346)
(4.992345583243435 -0.001919373659240258 -0.001037908653477832)
(5.000306608678891 0.0214724391085771 -0.002267281001683765)
(5.000418535209131 0.007761985977723952 -0.01082903082186717)
(4.998546804686808 0.004189192832667529 0.03035575122278424)
(5.000760343294727 0.001294822444669661 -0.001900454160619165)
(5.005993615981565 0.006088731438169352 0.005932543544621703)
(5.002145740468971 0.0006661831844902296 -0.003036798881451404)
(5.001385346582546 0.0002729484331401366 -0.00198930172972125)
(4.977339639551916 -0.005338192325687129 0.02073490613953123)
(5.000612954513745 0.0130542555879022 0.01063808968618796)
(4.999632747688689 0.001209300490942728 0.0002724452396122667)
(5.002424625303873 0.003839578917316328 0.005958799903960909)
(5.003969983198576 0.005756415336164106 0.004629143380685525)
(4.999289616353586 0.03495281870271213 0.001622030842955167)
(4.982217840594555 0.004815043436596977 0.001751040650693158)
(5.005267953758121 0.006407356307476157 -0.001042981695892181)
(4.999833060551444 0.00524042566569227 -0.001270800973093624)
(5.005474100028836 0.003901138058185117 0.001215451743708547)
(5.009628132937664 0.005914788644766226 0.001644374242336861)
(5.001314000745108 -0.01557384525658932 0.02152767816969791)
(5.004405455849021 -0.002176936893730021 0.001093054290265832)
(5.003782013775482 0.005812624447094105 -0.0008931087535171645)
(4.993421048077873 0.01011783570778007 0.01150081796833946)
(5.001684882099185 0.02739227802959485 0.01245383325795898)
(4.973203864475404 -0.002621339456641773 0.001132545714141543)
(5.003033133841055 0.01353933526885304 0.0146129276302731)
(4.999564449202986 0.001009726694034979 -0.0003562266185290642)
(5.006059380011004 -0.0004177452313668743 0.001120574840747095)
(5.006517590612193 0.0005650875637884729 0.001713258613766412)
(4.99810066932578 0.003971530359590595 -0.001232487327897013)
(5.001296240568843 0.005396625245646028 0.01211146801020718)
(4.999935298167661 0.001715562812293252 -7.229378236401107e-05)
(5.000021847372373 -0.003937505950768756 -0.007934823828800931)
(4.993431595245243 0.005441454130726347 -0.01176938815087833)
(4.99393876581062 0.009041420515031982 -0.007011643162145933)
(5.001477342801688 -0.0006166637944686786 -0.005960580460687656)
(4.999545133895255 0.00313701426213916 -0.0002577110773506344)
(4.993723014183356 0.0272140815371316 -0.002966581618786026)
(4.999994118573579 0.001909735999601533 -0.002145803421625366)
(5.004689115257305 0.0004285504672691329 -0.0001916521792290374)
(5.010666841283834 0.02061590586682552 0.0005954252872374382)
(5.000123548367401 0.001780211439223299 -0.003262233866968861)
(4.999731001168624 0.001129290880845605 8.464597972829026e-05)
(4.999843660820539 0.002135480977643219 -0.002350633607023506)
(5.003424476762565 -0.001246948141690259 -0.002850888309613114)
(4.993767975484062 0.02305409699320841 -0.006359521052818881)
(4.998425105452849 0.0005140234108464087 0.000402177845902473)
(5.000446440335504 0.01044271653386936 0.009327172290779695)
(5.002565274281671 0.008598246427654494 0.003912464679794786)
(5.000200081458511 0.008517437620459459 0.008061729068861153)
(4.999543289280227 0.001248866355257657 -0.002557964852408538)
(4.996682411982666 0.001263533972193407 0.003263326228984789)
(4.998697780456002 -0.0002288165877005676 -0.002037704291546919)
(4.999372333942616 0.002723382747311639 -0.001970475701318828)
(4.998875621115614 0.02091953271694639 -0.0006776124764442939)
(4.997609452744429 0.01600512113493951 -0.01319310679858391)
(4.997394600197019 0.001560367074851571 0.0001596738357682563)
(4.999900313799411 0.0009262177036562446 -0.0004775274268480142)
(5.023881990083055 0.04126259755837303 0.02273452894178491)
(5.002810479219369 0.01156838170391911 0.00251439515582654)
(4.96390155038971 0.04409303853342117 -0.002493825254986256)
(4.999839496134926 0.001308656819077645 -0.0002481417003476588)
(4.989835932477576 0.004407448189335296 0.004961312163859514)
(4.99928374364262 0.02150426617137332 -0.003711491370760245)
(5.005493496749807 0.003707129491746896 0.007524827667083647)
(4.986752865710461 0.0002651383461944482 0.002899682242140742)
(4.992920327563339 0.006664294422547844 0.01196622259935468)
(4.984985351206451 -0.001720604105478502 0.001958621565791144)
(4.99680544482016 -0.02121085802671922 -0.0001567405722886968)
(4.999360359777889 0.03286821825633109 -0.02138020681891229)
(5.001328169531109 0.009398170005952984 -0.000538094418605493)
(4.98530107597066 0.004619766985383543 0.003216402699970655)
(5.001097944871524 0.0001094948378332997 0.000221706981566417)
(4.974903204338447 -0.0007735264634724984 7.067329789177858e-05)
(5.003210458540753 0.01305847019722471 -0.08587140203976647)
(4.982764156907877 0.001298828194068105 -0.002589919748493963)
(4.999775552868829 0.001558690140868202 -0.004649086106545693)
(4.996815586915317 0.01275536341686724 -0.0002853428021991173)
(5.001449137300727 0.001492708876797936 -0.005448663036265192)
(5.000004683194551 0.01261210168289106 -0.009839632181971281)
(4.997587621730539 0.009749219030882496 -0.009724039985304926)
(5.000321920011378 0.001053148729961902 0.003918044647146287)
(4.955201802612633 0.002554462091960987 -0.04534014670989886)
(4.999803805813863 0.002496721905787528 -0.002887365183118602)
(4.999698471630231 0.0103388826642402 0.001151664623053134)
(5.000351236047764 0.0005983276544330811 0.0005162400746678623)
(4.998736600917457 0.0017923301883008 0.0014658880532214)
(4.995438704591076 0.01167877315182392 -0.003493601940110236)
(4.999026365082882 0.002929593770019227 -0.0001494500509652002)
(4.999742412649778 0.001168742677752086 -0.0005690024321405917)
(4.999656923613007 0.0007732159982648585 -0.0003084195395290439)
(5.003226796506062 0.001016272584360073 0.002488374756652429)
(4.991932029607258 0.009350873234666414 -0.006961127373602482)
(5.001064966140609 -0.005295956147185974 0.001923106473704918)
(4.972400422146764 -0.01432540954917043 0.001599051161198594)
(4.989368617938579 0.003450481499817489 0.0002757447134316386)
(4.999495927008619 0.001961293069434738 0.0005348809526677043)
(4.999775510055342 0.001459850411000316 0.00016648212393763)
(5.000533725119598 0.000749395769098466 -0.007294848386923084)
(4.998361440108217 0.001729057298278063 -0.004556110137571293)
(5.000624006670548 0.006479673245420854 -0.001227418639704398)
(4.99969679232572 0.001444594961721315 0.0003748178460061494)
(5.000545251125068 0.004327510125015476 -0.003094433134625828)
(5.00005839715557 0.001382352542502317 -0.0008996962312061527)
(4.99887965347962 -0.003137524573772677 0.00309195504862781)
(4.999569737174752 0.001624840894143244 -0.001620378693512792)
(4.999321368088848 0.003592275363341284 -0.0004292243724973936)
(4.983969480234387 0.001831755458484675 -0.005541943809524041)
(4.999651398751992 0.01820270829878301 -0.0004486101022944493)
(4.998955054673006 0.0016746053622845 0.0007550695888678974)
(4.914638255565841 0.4397276086751113 0.3472488817030174)
(4.988463797538778 -0.001212548464098616 -0.001001669531949259)
(5.002816408682816 -0.001359838668912402 -0.01314531392903675)
(4.995928441456406 0.0542951852918749 -0.0009561730417899383)
(4.998490299747756 0.002461821360209621 0.001678911749133104)
(5.019616250068168 -0.005337639775382813 0.03111923870263727)
(4.999414563888088 0.0108346818271554 -0.002761870814056671)
(4.988617693029107 6.623112703910544e-05 -0.0004684778456997929)
(4.99864511480739 0.02014540878571201 -0.005260902408356486)
(4.999011561669147 0.009756152535020298 -0.0004466103859729941)
(4.997424225598763 0.001086885105271919 -0.003145550637610606)
(4.999635359118935 0.00137829407297852 -0.0009269766371336399)
(4.972805493064592 0.03199183146685271 -0.0002929853503580708)
(4.992339271617669 0.01537065761896264 -0.05256220253964779)
(4.997344167911659 0.001201937062425397 -0.001679528145095731)
(5.002794944644702 -0.003503166405623626 -0.002709288048847385)
(4.999434991406773 0.001483116335298085 -0.001848107942367276)
(5.002971433290688 -0.001089734866290063 0.0005748481494589586)
(4.997888376528841 0.001522793296659112 -0.01003864296580579)
(4.999892661705553 0.000853150152198781 -0.0007429606631411203)
(5.003651901121859 0.01301980385899819 -0.004132363592838942)
(4.999967930793345 0.004110724592166171 -0.002740198083553327)
(5.000808121076665 -0.02223311614331473 0.002032170459546724)
(5.000257378552286 0.003241006952370092 -0.005686957287550639)
(4.998726141666411 0.002585155006789662 0.001187241609284385)
(4.998824483268052 0.00104306823700869 -0.001415422621573496)
(5.000083158894109 0.001293517750998265 -0.0004460292053028998)
(4.998986411682756 0.001782131962978314 0.0003119182233151038)
(4.998254284949154 0.003421550126598244 0.001664419539458738)
(5.001257561591596 -0.003706592930488787 -4.741022787947277e-05)
(5.00271147143349 0.01334544937049881 0.07087344678207277)
(4.993830700381823 0.01593992629165189 0.006177251613056722)
(4.999545449924757 0.001380930629743501 0.0004720244823894334)
(4.999955321962842 -0.007851735888193863 -0.007075211417758439)
(4.999266906228805 0.0009941482414894797 -0.0008808438751948983)
(4.999400561134006 0.001560156492982014 -0.001461692494413874)
(4.727247288631864 0.01481307682207585 0.2562620166226562)
(4.999727818887676 0.002273319081555136 -0.001355228142874257)
(5.002034362246647 -0.003160627636229909 0.001894460578779641)
(5.001097723257958 0.002847901239333612 0.00118999922111516)
(4.999429584403261 0.002071318040069453 -0.001080612039663764)
(4.999451746326916 0.001758280126830445 -0.001333823183614389)
(4.995824958692848 0.006202084526542036 0.03961724673009998)
(4.996506753801611 0.001589129561274147 0.001234935980933817)
(5.000675077804325 -0.006826057560766967 0.004974405750402699)
(4.987900614564882 -0.01752130876339462 0.09079803913562497)
(4.999705475585442 0.001730442789917095 -0.001586814324726033)
(5.000140209374031 0.001839766590037896 -0.001527996116019382)
(4.999363515843505 0.05563757507736321 0.05229332542463408)
(4.999819910285486 0.001476777911224802 -0.0008654027846634279)
(4.999201480698847 0.001744622706111355 -0.001239898442515655)
(4.990819571076401 -0.002504453804873919 0.0007168582766658844)
(4.999818654426229 0.008789171405042526 0.02682160385434923)
(4.999482253073094 0.002217357428103236 -0.001636394590806126)
(4.999959745891688 0.001904432056888277 -0.001101276628249813)
(4.997471399671854 0.01828380792503537 -0.001237561586376786)
(4.99949257386506 0.002513169007908831 0.0005703785168254212)
(4.994762491889618 -0.00770659013769125 -0.002572807386091566)
(4.998665275856355 0.0003856008901508768 0.0007115533581616556)
(5.007798923305639 0.002204836395879247 0.01160298693903943)
(5.002066270715326 0.01376065653165603 -0.01411046111112952)
(5.012011429570857 0.01600565658304943 0.008325905826918199)
(5.000304294193761 0.0009278010759837856 -0.003444520529980871)
(5.007709848186879 0.003320704606774293 0.008703344796370813)
(4.999696629464522 0.002416540788905347 0.0002137183723140108)
(4.990217919491989 -0.02541309462223284 0.004231403678723636)
(5.00078414839472 0.007537915689529138 -9.880154667328606e-05)
(5.009023562637172 0.01636769067749597 0.01018685532183562)
(4.991842502883144 0.006905088887806794 0.001791167279641192)
(5.001066701096871 0.01237569268706399 0.006147436466691942)
(4.999771870295278 0.001153019269189669 -0.00110073921857091)
(4.999701867896949 0.001031180061172564 -0.000972527880116981)
(5.000665348224328 0.008658847556194666 0.006436814232430363)
(4.999723185115315 0.01148027157316706 0.005596977650129234)
(5.001710679169195 0.01745774761742326 0.01200413829241394)
(4.984688422364171 0.001811064457687655 0.001861651999138734)
(4.999271715621105 0.001213613427312707 0.0006010323871949874)
(4.999740641262195 0.001533798201031452 0.0001123214080876225)
(4.999699128915059 0.0009432031103495371 -0.0005084245388846234)
(4.995952265780948 -0.02712973084839117 -0.005974314005755555)
(4.998480583166518 0.004077622086271314 -0.002586983738277807)
(4.999633810180589 0.0007157903162187985 -0.0007334050575177097)
(5.00320221013718 0.03068022557232944 0.02637686228036196)
(5.000437353976404 0.002409396266288018 0.00248515924108966)
(5.002211993889717 -0.01231688873987062 -0.0002471950900809668)
(4.999188188457044 -0.005917363624479332 0.0009398566390155516)
(4.998250166438445 0.002466031142499656 0.008880956939895194)
(4.999956035715121 0.001407167424912736 2.811122189773226e-05)
(4.997954067924219 0.007211595311737121 9.146005364133128e-05)
(4.994892819879015 -0.002360632144273778 0.004673539045876473)
(5.00058359066269 -0.0003481934621488001 0.001418218747925031)
(4.953640144256064 -0.01368864299787402 -0.0007299173124100898)
(4.999352645083651 0.001410324454276247 -0.001140120130002294)
(5.001036791858954 0.0008911842012291126 -0.001099366741216292)
(4.998833378706795 0.006371714033374842 0.05456337074480223)
(4.981778732341402 -0.009365718893224772 0.02783284289358954)
(5.000202728601073 0.002181159921970422 -0.0007467270400338361)
(5.000105114356802 0.0009588766611820147 -0.0003464177183639556)
(4.9996421739938 0.002602099793991404 -0.001684214426915953)
(4.998626607189522 0.002992442191494589 0.001894230404766173)
(4.99945937329414 -0.000547314307175038 -0.0008234942329928492)
(5.001639232306195 0.003036852076125886 0.0001465748669216454)
(4.997817292805218 -0.008643223740640008 0.01907951840784794)
(4.998213090817769 0.0006713200836691417 0.005766830263856438)
(5.001801807019701 0.001786012207041451 0.001159378241846592)
(4.995316201274437 0.02046858236667202 0.01419110553948221)
(4.999782620647338 0.00218276458438745 -0.001778880709044121)
(5.001873815127602 0.001294352695026678 0.006082355809328116)
(4.998814488540124 0.03406192279249932 -0.01077764746536558)
(4.999635669242313 0.001025263493812605 -0.0009306215640154191)
(4.98555389412598 0.0385639939762452 -0.05286815032935604)
(5.004787796752506 0.00399754037237136 0.005129737139199171)
(4.982867387506746 0.004895569054076018 -0.003614970612028574)
(5.003957874629041 0.00799876778003252 0.008557841282359207)
(5.020374963649217 0.05139641030674456 0.01786723020831726)
(5.001338886284227 0.004197141176372291 0.003269230135210033)
(5.00517804269265 0.007435367734634117 0.001084775928190625)
(5.005037536697496 -0.0001219289476203862 0.0008759135641452077)
(5.000276018358182 0.004152929205314077 -0.004868529558724656)
(4.998581132264184 0.0031360553955715 -0.003273379351144755)
(4.998795667321454 -0.001368317958501713 -0.00850659038413089)
(5.002357146204663 0.009096125784933745 0.0007626820516954196)
(5.001198244644192 -0.001166974671657839 -0.0150415762331845)
(4.999000950924005 0.00201078033860164 0.0006860593098332142)
(4.999960992388748 0.007463796584797421 2.495190810806685e-06)
(4.999736620575432 0.001659515573181787 0.0002665966552082756)
(4.998840086128217 0.004390425816513559 0.0009227949131857064)
(4.998124415030867 0.00425183212717698 -0.002936869529882165)
(5.001429756330695 0.005496055910786318 -0.001323062484371857)
(4.998824810245069 0.004744170486383932 0.001041208820156213)
(4.999854511784445 0.0008649171664145943 -0.0006369527658580522)
(4.987131252971473 0.03100909160728195 0.01812084326941368)
(4.999609999230191 0.0006543547880769398 0.0001139876422530793)
(4.995008714794484 -0.002751040503881726 0.0003015870637647905)
(4.998192574349188 0.004623752821682216 0.002018866299140885)
(5.000104752923682 0.005724611276794702 -0.002472470458322703)
(5.003481322798751 0.009334141061478115 -0.005646092662236831)
(4.987363716850716 -0.003095253734790985 -0.001823503848227636)
(4.998373648187421 0.006286145377151009 0.002759947139237546)
(4.97824392456023 0.004293610147056854 0.004606358866232687)
(4.999849872402931 0.002252552282785003 -0.0009376476475495443)
(4.994874712698454 0.008859409516090693 0.02799201586644233)
(4.997965843879842 0.02024572725493424 0.00931347251047355)
(5.001785867160966 0.009807244399454349 -0.00131865626394149)
(4.999837791946246 0.001506302455715052 -0.001365671732513928)
(5.004603932150814 -0.003927618580515398 0.01704126434271817)
(5.000420422404988 0.0006000221197840839 -0.0007929211693276969)
(5.000011672488574 0.001385375368969137 -0.001290919965403709)
(4.999493152779475 0.003770326396487756 -0.003018223512715918)
(4.994332213782139 0.0009723789737108157 0.0003568329087033925)
(4.999899205329646 0.0006913256261182898 -0.0002556787685775713)
(4.998001201768318 -0.008048610293500597 0.0006676750090061904)
(4.999836114492998 0.005467074272867327 -0.0002221075375067513)
(5.004007483005344 0.004350354018236208 0.003736076690590675)
(5.000034315777321 0.001258273082755829 -0.0009115902845580116)
(4.999350909101024 0.001312335219970373 0.0005105138835450549)
(4.998730637941955 0.006285583899953703 0.00334089263829396)
(4.998098821178967 0.001523954635657927 -0.0001164523043920659)
(5.00556904203591 0.001528173212070707 0.002574018485163955)
(4.995299045279325 0.02603506524549953 -0.004191769678417756)
(4.999358366572742 0.0321039183469463 -0.001855073020122946)
(4.999466243269587 0.001266894661386353 7.094574615464113e-05)
(4.994808453400188 -0.001290569227465873 0.02932395079430165)
(4.999074454765719 0.001693427492492966 -0.001617287600409162)
(4.999871370511145 0.001836554392703677 -0.001421542353139133)
(5.00001839055051 0.0008728480627120167 -0.0001289676161655604)
(5.000126576823742 0.002989417821828524 -0.002579045694463713)
(5.001328024174405 7.872515421100894e-05 -0.0006924529096031827)
(4.995686759205997 -0.009636649296602452 -0.003029880779861395)
(4.999375402613893 0.002013121041133412 -0.001494335377766688)
(4.998962502935582 0.0006591730759939894 0.001324838590654746)
(4.998877806711824 0.001809963466102383 -0.001465107557103052)
(5.001260827165359 0.001246462598733417 -0.001628756832948352)
(5.000022073856287 0.001162600555119382 -0.0004740564008564378)
(4.979557251621674 0.0001672944525404619 0.0001095785188084483)
(4.999271082909521 0.001322281447182547 0.0001132779551545637)
(5.004489488834543 0.006279606811144151 -0.01916092937167485)
(4.999324984430733 0.002307920405225276 -0.001430478846967361)
(5.000263348053614 0.003856936902968078 -0.008015379617220875)
(5.000883832340246 0.004354101044157438 -0.002225125749979177)
(5.000494833174218 0.002855811529008147 -0.001620739635483847)
(5.007334819565228 0.02106367744560091 0.0120657120301025)
(4.946981141275685 0.003787776933277729 0.0005564283380520558)
(4.997793789878626 0.001994104591689927 0.001822579515764647)
(4.998227565639591 0.001634063479488207 0.001279826228334272)
(5.001893435799166 -0.003364850997205197 0.0001282240203752029)
(4.999397783810013 0.003698362420093135 2.142170315509942e-05)
(4.999627148899051 0.008142934825060753 -0.007755341991164373)
(5.001092097943064 0.00244491486481477 0.003061426993365487)
(5.002014718664644 0.00210935672550012 -0.004728301775464327)
(5.000971903758826 0.003212331315044789 -0.01629495293989854)
(4.966522731179554 0.002695581219293955 0.001254763791204524)
(5.001066645621014 0.002893662919414028 -0.003953928902042133)
(4.997559220288085 0.004469845464196429 -0.002525358808207691)
(5.000898674555872 0.005761251741497161 -0.008892946322189607)
(4.998496106318451 0.001377111932109967 0.001221217557941506)
(4.999270064309462 0.0009995586730754541 -0.0003829801981839846)
(4.997178180843846 -0.0006283723054266885 0.003175551490503348)
(5.005062639862381 0.006064882088844414 -0.00242768437618517)
(5.000133813226297 0.0007020772989853341 -0.001192545875874624)
(5.002888821801369 -0.01414742104934161 0.0106691331105641)
(4.999269206025631 0.0008317623921231262 -0.0002432973437527362)
(4.999207712068807 0.003957022386088953 -0.0003097550662379723)
(4.999171677343927 0.002608077670072345 0.001376293317332741)
(4.98135768546577 0.001056129085995476 -0.003405332137820488)
(5.002295768017039 0.00138425245473019 0.002744862294434871)
(4.999677821867277 -0.0003158722701234588 0.000375658770523264)
(4.999520514446693 0.002284514663605837 0.0002970736641058399)
(5.002476275078127 -0.0004926473929007482 0.0003575692981990878)
(4.999233555147192 0.002179758995018096 0.0003686439336440981)
(4.999316830480089 0.002471031690774932 0.0008357110925142858)
(4.999679109095097 0.0009729250938586326 -0.0004482432128575575)
(4.998968287983659 0.02466043698045596 0.04588648629478533)
(5.005986649349525 0.003804426713667322 -0.01981515345079582)
(5.003777404769913 0.001906800218617447 0.0004693926786290022)
(4.999821548909797 0.002313288132707286 7.683146807635747e-05)
(4.99930490699691 0.0185674892194344 0.001586986424755884)
(4.999002755875788 0.002084484967536557 0.0006515984280690155)
(5.001010134028508 0.00131142149441366 -0.001705512358841187)
(5.003188447060919 -0.005894308014891879 0.001285745738954231)
(5.001755712954653 0.01019529782268648 -0.1129720937641149)
(4.999331014313897 0.002319645713378611 0.0001362698161255043)
(4.99968131618724 0.00180302230421818 -0.0003496606727690858)
(4.998883718233347 0.001236105713064464 -0.002065421588418858)
(4.998401193849644 0.004935074661618501 0.01193218496079193)
(4.999352943782277 0.001678394024445227 0.0002541405410760139)
(5.002388131598823 0.0003051500813208287 0.0009492922479220374)
(4.997608913614845 0.00623025647157927 0.003429475507776387)
(5.009284438168492 0.0233570025945534 0.004451387564948958)
(4.975683322971033 0.0001514869879308393 0.002832056740936203)
(5.012664168687795 0.00425825833799619 0.004993916622640709)
(5.000163283015029 -0.0004485431352742066 0.002476534534081396)
(5.002281244775244 0.00414061349701778 -0.003704681178665838)
(4.999340920459516 0.00235074959328493 8.833303716147441e-07)
(4.999579167231148 0.001480203298760721 1.697672548378989e-05)
(4.996335634429538 0.0006883634814734517 0.002564551789862488)
(4.999786655516134 0.001108780896672418 -0.0008477089930428154)
(4.999407452136317 0.001805377021407963 -0.0002355316606503879)
(4.999396943051069 0.001724450226504513 -8.132181398623331e-05)
(5.002794687080918 -0.0003477122068031548 -0.0007800936656150739)
(4.99972820665202 0.002050821665364961 5.44899110474662e-05)
(5.001944724190646 0.001743435082623881 0.005591557014344922)
(4.999368983376289 0.0006019658754355845 -1.004857387801677e-07)
(4.999243823282238 0.02171053472605248 0.0005747365320179638)
(4.999803138384762 0.001113166440945826 -0.000818487200651339)
(4.999442585793256 0.001780527509193825 3.316292860703522e-05)
(4.99847919327767 0.001289825516370537 0.001884537360543923)
(5.010941163452135 0.005212893514909656 7.604667037644053e-05)
(4.99931684234071 0.00262407693927278 -0.0001049916945649489)
(4.99962880942991 0.02604669787416258 0.00239283694843498)
(4.985473531691473 0.001526564602116869 -0.0002047500486761973)
(4.999472078354328 0.002276578739743385 -0.001094866500213795)
(5.0010240767767 -0.000126362111638856 -0.0003476059439652695)
(4.993745950447726 0.001326839131859892 0.001576398724230196)
(4.99032414386829 0.02929006462912459 -0.02427335185163074)
(5.000369990821086 0.002783659990155488 -0.0007884913003846351)
(4.998928853021643 0.001927480038064702 0.0001831252062343748)
(4.997890733572142 0.00198642832521629 0.001864480070394176)
(4.999516939540581 0.003295302164631194 0.0001429246435746062)
(5.001270814036033 0.0001890379354446532 -0.001513610716201729)