/*--------------------------------*- C++ -*----------------------------------*\
| =========                 |                                                 |
| \\      /  F ield         | OpenFOAM: The Open Source CFD Toolbox           |
|  \\    /   O peration     | Version:  v1906                                 |
|   \\  /    A nd           | Web:      www.OpenFOAM.com                      |
|    \\/     M anipulation  |                                                 |
\*---------------------------------------------------------------------------*/
FoamFile
{
    version     2.0;
    format      ascii;
    class       volScalarField;
    location    "1.4";
    object      p;
}
// * * * * * * * * * * * * * * * * * * * * * * * * * * * * * * * * * * * * * //

dimensions      [0 2 -2 0 0 0 0];


internalField   nonuniform List<scalar> 
19631
(
1.125362647723657
1.447828325378007
-0.734209159847885
-0.5606893476748175
0.208336673515353
0.3934001046464385
0.08657818111925737
0.8170459597033549
-0.1271305412201216
0.1105212140598396
0.07373905622282073
0.09580630884971029
-0.9180969225915147
0.2636410524576694
0.220932601438975
0.1099611625872015
-0.05841975677959894
0.1835033618875514
0.7860601413081565
0.5549850810437206
-0.05364377414642641
1.323811907353506
0.1104939652100836
-0.2955757566912662
0.1959773853828659
0.228333158504651
0.09023239613651408
0.6717926194225217
0.026178753675268
0.1043270714952938
-0.1783252993374806
0.02282120737563103
-3.01260285479992
0.2063725535198345
0.2143896290303871
0.2307184893091231
-0.01349582753196555
-0.03219825195425192
0.1558534084130873
0.09254731419444305
-0.3617124957684358
0.1106407968413543
0.2497765541107074
0.04343314975153191
-0.4048420531735609
-0.05984846993734865
0.27689051750692
0.05486827483463197
0.1136479790026965
0.2573253755506073
0.9269179686850962
0.1069426480459579
0.2587464985403451
0.1005357786955993
0.169588507500975
-0.2546315179226067
0.153761747294113
0.1455307249548178
0.1090800259248178
-0.0806445668866148
1.060936576618978
-0.08711792197444139
-1.13423319154573
-0.4027012124788691
-1.307294898044887
0.1930568796701499
0.03847518920184817
-0.09520454862829028
-0.754807806812855
0.1214025287532816
-0.3393709095278289
-0.2886189233643176
-0.031375188515411
-0.7245485612034742
0.06976359932539457
0.3387407157724147
0.01407988200844948
-1.141930433140148
-1.57293968056322
0.08413028049133084
-0.3850121852491747
-0.1509909088023533
0.11862602513523
0.2866957318879628
-0.03750092022262623
-0.06232186338774496
-0.4778541841980897
0.1160748026829461
-0.4845718926519259
0.2188267376819961
-0.1762822564796146
0.05688889379019026
-0.09442761663989925
0.1526182982600151
0.07351651554765916
-0.4669648745958266
0.3102019447915059
0.1989790264463053
0.07199791359655486
0.02670014026484357
0.2463548237683198
-1.189203596332983
0.1729264727825624
-1.346682968346407
-0.9617982021924469
-0.09514757827957501
0.1471975961838366
-0.8544655700286604
0.07220155142946875
0.1434313582074044
-0.1456926449004785
-0.5339240339423619
0.05777296597092849
-0.1377248582336715
0.5550950434376836
-0.8241598543736209
-0.7162743595572281
0.1127485689557261
-0.6858138047865109
0.02934428839936816
1.474727981443317
0.2419401397483622
0.08892009641435006
-0.05082313300692539
45.50288783807463
0.2107476258821674
-0.4370393058443882
0.1987853163067203
0.2072074338183447
0.1287060382186547
0.995610129907249
-0.2635476888959596
0.3036366187728581
-0.2566559715478346
0.06033328400581174
0.1312885640551523
0.1125869225647054
0.08902154903389013
0.3025293405715752
0.03649047243779287
0.1440664898478999
11.95191929595734
0.3389414973395204
0.02658050120894714
0.05139734035745778
0.07936070166814159
0.116152763320768
0.2107199224277492
-1.636257689303926
-0.1656814437151522
0.2004053277137897
0.1179252440856866
0.1214598271703667
0.1733818136195745
0.2441591289421632
0.3056771368583369
-1.937169688811762
0.07872849322590346
0.05486450277451613
0.2498985947534597
0.6091474805207219
0.2566834071996821
-0.9897865764648438
0.8890003429424065
0.1704231917000968
0.1532675043035562
0.1712090753637219
0.1844556704359217
-0.9640908593910522
-0.3208592735946389
-0.2872361637857497
-0.5799746224076603
-0.4457512635433745
8.881111316853081
0.04766707453139649
-0.6933790968923574
0.152879226283728
-0.9971640070021426
0.04262177577184031
-0.1728087925552412
-0.37933304023237
0.3767131637094913
0.121881034512416
-0.04527803876176362
1.141089546794172
-0.09203657649868162
-0.1167755259255755
0.04762036632624361
-0.367951938077968
0.06706060470014553
-0.2605025938821276
-0.2706333226588502
0.1559879905390696
0.1813087531307924
-1.584636352160828
-0.990241545263568
0.08286347048978017
-0.1079170500528892
-1.973860971279702
-0.3098943557615583
-12.70902560584265
0.3188098347975179
-0.1685220950238598
-0.3823941506336461
0.1109956893423743
0.2546688790714619
0.1541334773090813
-0.5326481006501911
-0.7592059409285576
-0.01122920725615534
0.05273139456926965
0.2129497100800047
0.003060013586578082
-0.595193157277972
-0.08425470055740827
-0.757426117232718
-0.5307156724208446
-0.3174075358848376
0.6161713228067581
-0.2501530455603115
0.5493964300611723
-0.2719401172736627
0.0273685395862472
1.049025158936414
0.522471185322407
-1.080535703550393
0.03581386282303097
-0.04803800042037507
-1.690364132524092
0.4017699646367365
-0.2907631847602639
-0.08868715437934059
0.3591752227916772
0.07616706606905803
1.185355836202365
-0.0338825537538549
0.06841761229902422
0.5963069312006078
-0.7510697487638394
0.2235438333210404
0.6773737148834373
0.04509952945144535
12.5809084325217
0.2642707214631793
0.5799126237746199
-0.4251586403936069
0.1900146593606435
0.1552694451461632
-1.425441536038958
-0.2610366425180815
-0.1822861179209339
-1.213106811906884
-0.6351790557261828
0.08585775760870842
0.1100795050768052
0.4933851290802055
0.1334475463723429
-1.145775267024922
-0.1162619578459832
-0.2928785562997536
0.02461032050281591
-0.5665906751162565
-0.152345736809307
0.604960716088024
-0.2809589096958877
-0.05206315979101749
-0.01237215690769157
-0.3915320952608694
-1.003846426308028
1.864596225923695
-0.4300765455710795
-0.1334794705951827
-0.4955638359149862
0.0958608364982329
0.9329883109293535
-0.09688795465525095
-0.1475543305694867
-0.6813196593576973
0.04130379239695962
0.2951192967454548
-17.76388607347898
-0.5900129454041171
-0.09890310588731473
0.1614668773890155
-0.4302227869579411
0.07846252139809373
0.508276335944871
-0.3287777448405017
0.006000157212779814
-0.2226851487229797
-0.2465338509999812
0.09632835095922859
0.2772727603365052
0.1292423521229908
0.2063164554406137
1.794740237892107
-0.1644901460977663
-0.1993696137213709
-0.4176688621417895
-0.03027469269743444
-0.3448611696804929
0.8649782221193422
0.1558400095860485
-0.05763299342091365
-0.3100074601969662
0.1138415132990998
-1.24716482579939
1.57043255235681
1.536664567996077
0.1200219120859877
0.4148478437886529
-0.1920970678148209
-1.866132194447817
-0.003495756751127126
0.1119564938613885
0.1317484994958652
0.1948050331582816
0.1088045214063716
0.4892828421294821
-0.02488887197563434
-0.0712121738517931
-1.025571522878396
-0.2793975283533919
0.2240672816161988
-0.2728632405755798
0.1935777781676317
0.1336903620921754
-5.688063609797687
-0.1748292874562291
-0.6074835024486465
0.5288749880424931
0.158867622325619
0.2558551502593862
0.3295683804290972
0.1030464231599353
0.3063330041151788
-0.5593571136572304
-0.2620123098138846
-0.2378125115236884
-0.01005745648838948
0.138328963883818
-0.3088738157986177
0.07875216438574362
-0.8372555322214041
0.4997841066501556
0.1540450866767586
-0.7004794774308468
0.424275366592881
0.03876389315222822
0.1867059746214188
-0.009361796003798918
0.3302187925625762
-0.1712588012666783
-0.5319245343620858
0.02232517473206459
-0.4736072076139234
0.0388567813151759
-0.05200686291398116
-0.1907429672915793
-0.3632762075135343
0.01056190877753486
-0.7440306480430384
0.2336746014248627
0.2311261710366269
0.6731203688311213
0.05439496228367761
-0.2761161361030319
-0.9640164364554983
-0.007899707061724083
-0.09080315834368996
0.1475212017571
0.1170796895949002
-0.3338166341713134
0.3642808518064692
-0.07297150615137807
0.3655163872373671
16.75362246457431
0.1580905073262422
0.01013095504779779
0.1388374561446137
-0.1140043754437547
0.1647925489766866
0.03687258797637191
0.1918714147786305
-0.7442157125963565
-0.8476989333061965
5.066807147127186
6.790957778183559
5.488913873162176
-0.7612122185803298
-0.439483068704372
0.006271331399968356
-0.2442178640067444
-0.05817141330566675
-0.04852906445296482
0.1287892081455741
0.1871459785221983
-0.09108201840295753
-0.2221528578090179
-0.2266003225944143
-0.1491369529734743
-0.1985653030074213
0.1588291793588701
-1.366906949400288
-0.9613943400873742
-0.8379683450038253
-0.8821479987105113
-0.2722372859362952
-0.7052593750490422
-0.1450160156614813
-0.2385213976527112
0.01463506867922157
0.3039339702732904
2.365359211807951
-0.0259648222166157
-0.2937818197005119
-0.3332521091101711
-0.009394212659821394
-0.4662243677087037
-0.1098146880512701
0.2899018475983378
0.1107329544383431
0.6164636174679828
-1.474137170839656
0.5060247240412195
0.03860548888020221
-0.4202346209982685
-0.467869792831677
0.1138379498350658
0.02410481491156758
0.1013239154223863
-2.105559555936948
-0.3993786909382628
0.005200335507417274
0.2368294259201496
-0.3740601247267636
-0.03630749279898246
-1.372152047243909
0.06288595808733197
-0.2300891283474352
0.02117955765650053
0.0764619368745602
0.1591177633489596
0.1166676379589528
0.05709713198917584
-0.1193763064533902
0.04164115246233194
-0.5615823099892161
-0.6521782989053542
0.02988310374373027
-0.1834291832951991
-0.1127822914899372
-0.169422301148892
-1.320125556711013
0.07931064732464287
0.06195048322544797
0.0734689111006539
0.04853325693123713
0.006856523134222778
-0.6084327993304502
0.1936782924262509
-0.6040022928140916
23.83877910813618
0.1729969547971888
-0.01050425116479098
0.1353359779316177
-0.1626076208194228
-2.935840320808797
1.047001780180383
0.07637310299135941
-0.8351431600647445
-0.2888099117262878
0.1187977974519741
0.2221476914280906
-0.219096507200013
-0.1258609477242865
-0.110724746395035
-0.2639101900420794
0.03928677338695491
-0.6706196211002137
-0.03279172864025007
-0.1054765931779673
0.08914114988152004
-0.4306542701130077
-0.2003819638574131
-0.09395721366537817
0.06553142684759887
-0.01471849542797415
0.1971941409701805
-1.502422166210122
0.1515342276540069
-0.5017596413855202
0.08072187313949816
0.0759118115473956
0.04635446542857815
0.1408470564671834
-0.2737929948170705
-0.2079669975894125
-0.09188932156967848
-0.6297407720316123
0.1630062137855557
-0.0657065147998514
-0.2113716463967235
0.002645750217258964
0.1849715455795838
-0.7048017881159798
0.7797001696266815
0.040308535697338
0.1910665499550689
-0.04053689515419842
-0.2358054926539091
0.01677018992446883
-0.2928361217426601
0.09595900025959414
-0.1102550412714428
-0.07863166821963775
0.1831240796278106
-0.1330739160204817
0.03431193101371737
-0.4211914709411198
-0.4806672670122154
-0.04597666081064691
0.3792114101431235
0.02843520723273727
0.4749868700655419
0.1620358035491816
-0.1715023626211999
-0.3519643791197018
-0.3064197208555591
-0.0368594224147302
-0.08812217173320666
-0.1686465681103732
-0.1026697959721535
-0.1164708815369957
0.3262493627198128
-0.1270119632531133
0.03179174969855876
0.4157636853377943
-0.1818422645514215
0.3280749182174759
-0.1339172984969807
0.005917392652516093
-0.01985206572517922
0.1900510566740821
0.07416112766735015
-0.4085874994514643
0.09347858993296936
-0.6882883611918496
0.09164074344749835
0.04143986652249505
-0.05521202549029615
0.157018111489943
-0.1970012862187247
-0.007712557301902973
-0.2407236953260073
-0.1899111184913786
-0.02662706462486361
0.7802664440281392
0.044264528270483
0.08325936418651646
0.05838980460662753
0.06951200427724685
-0.3358265443201227
-0.142807873615098
0.0371972588510552
0.1989614541929453
-0.3354736242332384
2.638776745751025
-0.1153845787921629
0.2077236336095135
-0.322173218911175
-1.082688512876651
0.02294698232709704
-0.2172736347600868
0.5820339815054832
0.08955431255792277
-0.0839882042471234
0.0214027666873042
-1.287608904729843
-0.3775625211591462
0.3122359128691272
-1.38751417617008
0.3600938118875547
-0.3256328069913542
-0.09582178340250458
0.04177348655549437
-0.05392444515488948
0.6099205179949093
0.3844506583729158
0.01557518749003107
0.1315564682850299
0.07531402816129794
0.6874730867086222
0.04454974080249651
-0.1947469202369121
0.02903965555305047
-0.1633490471907964
0.09167898861516356
0.2316551802708236
-0.1518680928585235
-0.2258342999259354
0.2242068766507405
-0.6860023292137961
0.2459665033683177
0.3097897208469997
-0.1648940808128892
-0.7135123788373507
-0.1349494925163469
0.09012019700613785
-0.08964794490728481
-0.4931812081231947
0.3543280931007767
-0.3575286742776632
0.24156906745588
0.2192382714357674
-0.4355018355602412
-0.1843058707384475
-0.008209290427330656
-1.076397108705131
-0.2596028255011193
0.02375106520834361
0.03617149430582661
-0.01182840652857048
0.1031053440711123
-1.585720214850587
0.1603276978830275
-10.13945875451326
-0.003164132266328959
0.0721255683719256
0.2846025902325834
-0.5423620807475399
-1.392964651391657
0.2804319534671902
-1.378259275477044
0.2273554502914798
-0.2130205386121007
-0.8858219975780491
-0.4994331320721589
0.01904997848763503
-0.05578262948695512
0.001628175608830713
-0.8798755167444042
-0.2004925379533385
-1.265432392507053
-0.5684283296329259
-1.229825235046611
-0.1229168150761521
-0.0747075842559444
-0.2953631577842478
-0.2195007797708091
0.1250376816194543
-0.09816846197699385
-0.1798386034578596
-0.4852602732613704
0.4064436132351993
-0.03403903892386977
-0.1021478187709549
0.006398992300197624
0.1138439932545294
0.02563008491864181
0.02933833861191926
0.152934248045277
-0.08448507936687585
-0.196012487123449
-0.02918449418347698
-0.1674993100291774
0.1795680257324152
0.2656186996514459
0.0457961402320782
-0.7248758468314122
0.1000958053505784
-0.8508439631153866
0.5463832907598868
-2.164428043007685
0.06341850219155208
0.2073030030558649
0.03488345128726233
0.3506081808331472
-0.4049087049487975
-0.2524085050972169
-1.406454707085607
-0.04214814343682097
-0.3394589977490827
0.09100128840911653
-0.2664503824119572
-0.4635637259976139
0.05945540734471465
-0.3528725318937907
-0.2477153595687821
0.246769003513327
-0.2138058332581278
-0.2747848431229946
-0.3012387173127709
0.1668491095624971
-0.5588673123694277
-0.2030649501131143
-0.1548252219148465
-0.3657795441320728
0.1152620703080607
-0.2326405311665484
-1.284380516870329
-0.3738743581864546
0.0207570005329459
-1.605371172153471
-0.1603874058865345
-0.5754762621083328
-0.007817188783662344
-0.4391805327935754
-0.1695196974381003
-0.002843337002205346
-0.3189164662161408
0.4901444218836007
-0.8835499097806944
-0.04924223599467101
-0.2207617202012906
0.234359543524935
-0.4512910750583829
-0.1398268832312883
-0.1279630570734651
-0.2062821044429086
-0.3885041600787507
-0.02968417994205681
0.1769452978494881
-0.3382144560999739
-0.4966575240527186
-0.4827533625723665
-0.04219090823064413
-0.7035953160612778
-0.3402914268969998
0.04040229193231004
-0.02373715193877855
0.5219086185989296
0.1844319651345699
-0.430604389780727
0.05192812918048158
0.004174805465233682
-0.1039623383328149
-0.05017284487482594
-0.2022023946444226
-0.09660042958427066
0.2836801635707396
-0.7808423638402139
-0.5171327884406574
0.1907428557547473
-0.01512993123749254
-0.7802954482841699
-0.001592779059621649
-0.2668392692815862
0.3771599825066711
0.7239535208224664
0.05338810151668018
-1.111434138644898
-0.48337470701452
0.1556066472106096
0.1212874248879337
0.4384989630815646
0.0124184412013765
-0.1013672246548927
0.1261350085729946
-0.08470136341361534
-0.1445716839036188
-0.8382249357624684
-0.536921567533983
-0.0210091108221635
-0.4672580546436364
0.03743003309308936
0.09526224566142727
-0.3324837816643943
-0.07048729687042657
-0.07079192404299819
0.009393231724909645
10.51353240662327
0.1464423739721932
-0.2044804787345633
-0.2398977719075835
-0.05313645203046437
-1.211497800690555
0.1246420959066764
-0.4378364808793919
0.06028494374619381
-0.5331092223620431
0.1451590283287169
-1.116298208689997
-1.805343995701709
-1.246215019235941
0.2343040548499974
-15.55252584400219
-2.158940554119976
0.09360221053375964
-1.809669240840909
0.03802784011522682
-0.01193292865651004
0.01745612414817753
-0.170604237715831
0.2213798257846066
0.0504296759273379
-0.3944696459780038
-0.005947191222950725
0.07246461916567538
-0.461981631509279
0.7393363866062769
0.1997181548269604
-0.3602706085970158
-1.306674218964028
-0.07162207767328389
-0.044282318592975
-0.08876752235208377
-0.2488938066346371
-0.1270480201065848
-0.2278042013692295
0.04328227038241715
-0.3578303133131164
0.07551433548754083
0.08113254747760891
-0.04723328194163084
-0.2537806816847068
-0.7065096447304167
-0.0368285925800099
-0.2435353308423504
-0.2563109100984153
-0.05957498881772073
-0.5734567856344239
0.1006725205147286
-0.1317015096539181
0.1589377885997921
-0.3171106579874501
-0.3317681569171246
-0.02286600997613553
-36.29082712656927
-0.5247596463374502
-1.122571944261348
0.3408250553342774
-1.22672495476675
-0.217450611044323
-0.01826256477115284
0.05342913384625663
0.2192648267782389
-0.15009953509859
0.1633311900978407
0.02690770076510848
0.04280060383276446
2.746990714203094
-1.669367067658954
0.03893760427041235
-0.03995602711660148
0.3451108328036703
-0.5599088650797984
-0.1920638210908449
0.08945768973263951
0.08622942790527617
-0.1918220156836228
0.6030154797720914
-0.007051547801922234
0.006704211219089958
-0.09394537977144536
0.1712295266395789
0.04555239863356386
0.009685233959980605
0.08816799514145511
-0.09344819852977256
-0.2016381714358432
0.1308980493885696
-0.08858039997046063
-0.05981742552123974
-0.5371158585696014
0.1104923659203885
-0.3016672722941354
-0.3399107557577423
-0.7663554210686417
-0.3317511142031934
-0.2184842623689805
-0.1018559706224002
0.05119996090169688
0.006026548062332614
-0.41020064995528
-0.2446698737072242
-0.04644649801306822
-0.3996858588902478
-0.3515606947397941
-0.05342832588916071
-0.1100458460632848
0.41115019304704
0.1219281157475102
-0.1632761724215867
1.825971111615318
-0.3105003116018993
-0.1606447230594029
-0.03552549040085998
-0.08386644316846953
-0.1057705081775031
4.974064328813253
-0.2055465791384243
-0.1165320304616352
0.1092400834421811
-0.5113307047467756
-1.107771813943347
-0.7203405705936707
0.04378340300634007
-0.7008351210742541
-0.5027500987057921
-0.1126563653413774
-0.1742782873257709
-0.101822201740671
0.4027967014143614
-0.1293924073964671
-0.05580711064765603
-0.006850132336108527
-0.1713086069497457
0.2134295537181255
-0.06696033189148018
0.2023705294503063
0.05856142431561365
-0.4489169990829572
0.5739434349322534
-0.2678589151784359
-0.3103584590350608
-0.3627645260503028
-0.2493302694005034
-0.5326383957495527
-0.6811353218550633
0.2312894635097581
-0.06986118983128722
0.08332072538252953
-0.3528013797959669
-0.4798225554396096
-0.1879966748133443
0.06512742939505792
-0.07765858868301691
-0.400080283942403
-1.349019255979244
0.1847911217518382
-0.4644141604311691
-0.1971156839038166
-0.5611952593298929
0.4609044856670568
-0.2836080130116318
-1.218503065817761
0.562026427909078
0.1036818802654871
-0.5781873866595816
-0.3199534008782849
-0.8039001570060672
-0.05908880454212545
0.4077158437114331
-0.3404774391384198
-0.03915751540166985
-0.4694213509651621
-0.1687095019886718
-0.0549448608875559
-1.41643616840235
-0.007843156935500636
0.9839658836984279
0.02185236360510679
-0.08831512229290377
0.07458164529209507
-0.0359572437551005
-0.717292993759457
-1.856505513789205
-1.78845674033276
-0.6189223355741515
13.22997207622633
-0.05986855797994621
-0.03190121749430384
-0.5210156851681259
-0.255898148186012
-0.3306988694661347
-0.1006460346947001
-0.02061687726387619
-0.332140488169226
-0.9205454971054533
-1.447789664117894
-1.879220367975362
-0.601942140497589
0.02147526209943558
-0.9723686383761911
0.2815820146072964
-0.1066884471120322
0.01215885332037015
0.518089844523494
0.3152720012324645
-0.06462338848079657
0.1808098155498902
-0.3634743171382261
-0.4664866451891321
-0.01803055092705479
-0.3054720215898927
-0.2607738241255498
0.1779842414914755
-0.5309894592227246
-0.1931654741760682
-0.2316224394858616
0.05506799017140666
-0.1886327699408717
-0.03147578791735132
-0.3545614330631041
-0.4142297514385785
0.5767503817230228
0.8067084775203633
-0.07879315682998539
-1.392771819775332
0.5373779327807271
-0.4755148702962657
-0.1919896051881292
0.6804252903832176
-0.01860859269090694
-0.2253420938637862
0.008552503285633681
0.09141938985925656
-1.634530854442181
-0.2935704422186374
-0.2875659358025071
-0.09816868244828784
0.03425453322195751
0.0088227565675475
-0.01266748341045947
0.03408080525672754
0.09831546271139199
-0.2295194647634363
0.1014292804821426
-0.4033975444590301
-0.1954248415275219
0.1469194344277268
0.2659176668329937
-0.3396966036095047
-0.06923138290961064
-0.5823428235323403
-1.007030507865261
-1.221780208400486
0.2547984067965841
0.03597865461723372
0.1510141292466976
-0.187533200681907
-0.09361676869875946
0.1016887973612474
0.186646292282
0.06306627611414997
0.1325055552047072
0.1353274414310975
-0.5001579509826583
-0.2064623087378737
1.794888829167936
0.1084694180427196
-0.136501247028493
-0.02168439677119128
0.8668682188020227
0.08040522855319066
0.09903643309533716
0.08735614184129273
-2.057143471504871
-1.618808015796485
-0.6308850990863173
-0.5197980068277057
-1.363969924688426
-0.18423482079693
0.0700020720167138
0.1395692073186616
-0.2524150771699401
-0.7466838910714405
-0.7417541897872718
-0.0797296027309856
0.01830213538204902
0.06980649537861539
-0.3827890229448901
-0.6148493047880804
-0.7951301322611672
0.2138319584738378
0.0001418064459164943
0.107383126512748
-0.2561723138558876
0.2530862498673186
-0.190674971118849
-0.397586209647864
-0.7661181527931029
-0.6241581046171014
-0.01954305424501405
-0.9516743860249232
0.1042731965264338
-0.3328554139498776
-0.425673299082474
0.5319022252660097
-1.522488190219404
-1.014138936720093
0.05495601430645942
-6.686574295382418
-0.1655547723181687
-0.5500054538896738
-0.2662396779763753
-0.5644704902015948
0.110479790361615
-0.4130050134046934
0.05046338362112023
-0.03779267345341032
0.0405459918708532
-0.03417180370271718
0.2797424617066613
0.1007824953573604
-0.2087369812683427
0.3053301265325001
-0.1710425747510254
0.2888344053151919
-0.4816970996824214
0.0145758687305093
-0.01220687723586504
-0.08997417481000894
-0.4295827307316959
-0.07557307174157657
-0.1413739553432952
-0.5264546926165201
-0.9464145216192955
0.08899582680359622
0.2889134071420086
0.028406674041309
-0.676881699962835
0.02000451446404121
-0.03994895431800603
0.1093372564956314
-0.2285125141182224
-4.027718127783236
0.1050273909109345
-0.8283414394508298
-0.2148390741723416
-0.5541575027692823
-0.1413433420695315
-0.0843451289356533
-0.4120417909700247
-0.9831874376316252
0.103200561242975
0.1354366278876799
-1.665938242409813
0.08990080046233301
-0.9579989216854148
0.002929664450170845
0.2302070045507503
-1.663030915497279
-0.1054319176374575
-0.384083249926734
0.1238852683960477
-1.195952562913329
0.3099275366457179
-0.7494460303697027
-0.423993151144988
0.01750392927661175
-0.6402675484666651
0.1069966349950984
-1.56029296337155
-0.3823761149857408
-0.438748697043792
-0.1877221742846709
0.006531514104415189
-0.410367072152816
0.1467223762489892
-0.8452403037971035
5.97820261452861
-0.2295028024094586
0.3026506785826684
-0.05046862224938283
-0.2435961671677291
0.6203576416682425
-1.021920660480155
0.1058777170358319
-0.05161276192367369
-0.6010945744043953
0.04968320224915374
-0.6030376125894172
0.1471047995540302
-2.044722317335963
1.227343765204555
-0.1772821806271263
0.1186536120310174
-1.313278325348533
0.3435054847567201
-1.320111737675187
0.2993527158776695
0.04313096990917411
0.1083362397707326
0.4145276345477888
0.5929845866847946
0.09106692621943092
-0.3208932454538836
-0.150301959744233
0.8977776416990698
0.2634791310915052
-0.2103902463222382
-0.2847255085938864
-0.1914141674635867
0.05064327912917188
-1.895002895435558
-2.919153282359457
-0.01794869276486704
-0.05632112395822131
-0.204413099810633
-1.050021069409498
-1.200545599089821
-0.7168802490759429
-1.0101043701357
0.1376578559432209
0.1982317459512302
0.3934282566723954
0.1650632222155133
-0.4846775422900341
0.1430024714261779
-0.326743065334038
-0.0351854537880893
0.2236585952114527
-0.6752949879953822
0.1845392127489099
-2.818756759425414
-0.6229361159088151
-0.03713086371248586
-0.6086800933848208
0.04320186443552362
0.1189066550758062
0.2080781435017051
-0.03128111456070815
-1.685626930128126
-0.4190972143686116
-0.5774359342747334
-0.3517729740465152
-5.85172435378426
-1.283938807829657
-1.157241224007216
-0.2910623406691989
0.04998077241472602
0.04664492618621466
0.2074647091041395
-0.4365971408733843
-0.114982871196519
0.3670467549226167
0.235789642804752
-0.1088681824256135
-0.4426976220860111
0.07478131679760264
-0.6743196450077849
0.08277760611795346
-0.6681922097903178
-0.2600167688166118
0.126976377283479
-0.09175823858034883
1.704380578118466
-0.1164496485324157
-0.9813784419767226
-1.124807758849592
-2.634952769105554
-0.6449195365858503
0.09950187207066247
-0.2182810586534155
0.004704443708856327
-0.4235786364769206
-0.01216548615291283
0.269536321687307
0.09214295679491961
-0.8764478138843085
-0.4878785528792963
-0.2006195171012717
-0.4137517538121736
-0.7001912179423541
9.208662447300398
-1.565668660283349
-1.829775475872293
-1.008939620883464
-0.2756494388233793
-0.1864456380360849
-0.01649785434436322
0.03237099993454689
-0.4893935447591283
-0.5784024415910143
-0.1415809444815199
-1.25758020493892
-0.7852882487771257
-0.02240399564043313
-0.3287491412285869
-0.1008229977085231
0.0762355167142105
-1.854242621699698
-1.737735738756574
0.1904166419063149
-0.6489021509069128
-0.44714266598398
-0.3262047539548121
-1.009553984222543
-0.743609510948108
2.521174213142785
-0.1040608713569225
-0.1282122403066791
0.01094069440718621
0.1698789290273864
0.2262861998867815
-0.003891513380377641
-0.1151346456157421
-0.07230333917865533
-0.4294280200576044
-2.542871038209876
-0.5794388971231348
-0.4794946314126402
-0.1693642272524272
-0.2207294767671525
-11.65633260233049
0.06716270137777854
-0.3417003649783926
-4.085160978870739
0.1220757011567176
-0.6306190331884632
0.049746285580576
-0.4003133220294367
-0.2658785527789917
-0.5954983458631887
0.3867638783944965
-0.6316528390380238
-2.212848360546884
0.05965636354263067
0.9837009732432912
-0.01052226650305963
0.006218356467609114
0.1518618534095432
-0.2238955032507604
-0.3772092277724833
-0.4758555238500964
-1.088765391741637
0.04653054515167764
-0.1179781526488234
0.1240010685581636
0.04270353213099274
0.1404134567436224
-0.6220423043416339
0.04097495422938994
-0.6477708855515572
0.01962307051597712
-2.677409145223112
-1.276070260895341
0.05715206443259262
-0.8098179690821236
-0.2637485068805564
-0.05177692596377584
0.3358198712192655
-0.5333538977281496
-0.8722457486308138
-0.3398064931588363
-0.05659578520035497
-0.01515830115829024
0.05850580226872846
-0.1174560075976414
-0.4433167105472121
0.02248838019178788
0.3651749557646132
0.8607728037429829
-1.075042446113913
0.005735208896762259
-6.634146323792949
-0.8504368617372862
-3.536486157404152
-0.8816483256922195
0.190455493392134
-0.3910091825436404
0.03792777920157515
-1.711554471317797
0.3073613730425303
0.1482129545201928
-0.5331410268526545
-2.133917236344558
-3.253268710742343
0.211077820243511
-1.129777085387902
0.2622027612046245
0.1107124697118185
-0.3766948772733821
0.292985696876739
-0.2833198303338227
-0.04248999527618557
0.2307674385158307
0.291593935109122
0.2211889460575968
-0.7685527719578633
-0.6888864346072634
-0.0427398744684959
-0.1413677804991655
-0.3817455644531468
-1.283168448759048
-0.2051359677058258
-0.4895248400819791
-0.04817453415839489
0.2132710311509989
0.07274632158524559
0.04030508306166194
0.1632411344819854
-1.778076521189778
0.1608446397365208
-0.8542629803189886
-0.001524616744773753
0.03514305540462556
0.1410301976137005
-0.6040482602037258
-0.3289524001035091
-0.3210119363187218
-2.349298083938848
0.4729455745403738
0.00656568999947519
-0.33147472650254
-0.2224400236328453
0.06322469227467571
-1.626390331162507
-0.7068832268334867
-0.699091143318358
0.1139309346053641
0.04150422131539382
-0.2768383036045263
0.04787474727576586
-1.301358171758722
0.01627508418815058
0.05602745678110481
-0.2311223033544677
-0.4863115855594036
-0.7905153134629062
0.1722094101115628
-0.5390877499739758
-0.2428016462968725
0.04435390648755431
0.4621950226036053
-3.003800305316211
-1.445951860741084
0.1485686742119097
-0.1462413303628796
-0.5381426698944108
0.1691655422208108
-0.4474260641789382
-0.2406866615350792
-0.5466311497597424
-0.1214111502548285
-0.007026139457660208
0.3345785445043024
-1.213213029996176
-1.793721746238968
-0.5560811577556816
-0.3799086496214039
-1.252903178370035
-2.96539228103838
-1.233331471132706
-0.01502771495827121
-0.4097185037009414
0.2157342814607066
-1.192150280768605
-0.6745174189973329
0.1009874624254482
-0.765820449268157
0.3378033715239055
-1.22762874304866
-0.5807700786396499
-1.602271386506826
-0.5339391386024287
-0.9850466949553713
-0.7769067782560619
0.05050976378737907
0.09819117304142254
0.1362841152825412
0.5643903934476523
-1.847533189658621
0.09212569231575818
1.436056088192927
0.8332498586807976
0.1090128277023362
-1.6633525654597
-1.090729915759813
0.9971251601041112
-0.9937674741567462
-0.9329757637932872
-0.8098817305936135
-1.063680981383281
-0.7602234633314798
0.2000716349245452
-0.4089813754048578
-2.337679819809945
-3.536736623745595
0.1676305722585376
-2.438000279956065
-0.1155921766449596
-0.1482970282054439
-0.300358411510917
-2.512289099526051
-0.1350735352537631
-1.163385367319491
-0.2432343313857688
0.2717998221727786
0.1064955151022485
0.02791307839271382
0.5372966441613313