/*--------------------------------*- C++ -*----------------------------------*\
| =========                 |                                                 |
| \\      /  F ield         | OpenFOAM: The Open Source CFD Toolbox           |
|  \\    /   O peration     | Version:  v1906                                 |
|   \\  /    A nd           | Web:      www.OpenFOAM.com                      |
|    \\/     M anipulation  |                                                 |
\*---------------------------------------------------------------------------*/
FoamFile
{
    version     2.0;
    format      ascii;
    class       surfaceScalarField;
    location    "1.4";
    object      phi;
}
// * * * * * * * * * * * * * * * * * * * * * * * * * * * * * * * * * * * * * //

dimensions      [0 3 -1 0 0 0 0];
oriented        oriented;


internalField   nonuniform List<scalar> 
37503
(
-7.339302425013099
-10.98509812223645
26.08287873424378
-7.758478186825715
-12.77805734806156
4.732392040799136
18.15822358515902
0.03312742536775757
-0.5434085373022358
0.8668793942312507
-0.3565982823010366
-0.09759875943024607
0.1221839461861618
0.003182519546453224
-0.02776770631349352
12.36132209552509
7.214015498680086
0.6042588831210012
-0.02292333234246749
-0.08488132772568573
-0.4964542230710829
0.08181987778494466
-1.621620637387173
1.581562980080269
-0.04176222052600434
-0.531147456515321
14.55397060776329
-14.02282315121175
-7.838128012609928
-5.716161872859879
-7.790428700771245
21.34471858636806
1.793959499728573
-3.129729954521422
1.477896579725019
-0.1421261249754248
1.507511865952954
0.1789812116103643
0.402190277409322
-2.088683354946309
1.697954918753555
2.119843828190285
-2.722610061182154
-1.095188685668436
-0.02468005797990733
0.0008326779695907461
-0.02153600553116442
0.04538338552619348
1.103123897124373
-3.576785469767896
-1.008883508574298
3.482545081382579
-0.895864509296695
1.9735586263978
-2.773336956074511
1.695642839075646
4.362152759730247
10.50237478034053
4.570786902569249
-0.007696418423546536
-0.1621872414597599
0.1409974428372444
0.02888621701751505
2.098314804279767
-4.626937241857866
-1.999141962460533
4.527764400182467
-0.3568953652871177
-1.25807055581502
-17.42643296994111
12.37980884427183
18.89733505026227
-6.586999991341211
14.13669396529776
-8.13556346512447
6.889394481300154
-7.895402993027966
9.141571976908992
20.15751059985754
-25.61501665614424
12.02378211461935
-0.07218726010319312
0.4632088208707303
0.02758149636313178
-0.4186030571417813
-0.4548312772537654
-2.179533055968975
3.737488230443049
1.399071492055123
-2.677756350721723
0.382820349443342
-1.437947967510759
1.925877659933019
2.203931452444585
-2.691861144733088
-9.776960407908806
-9.465392026623951
0.2386637933106735
-0.2452471491679568
-0.04424611590959
0.05082947172986459
-2.328985964000939
0.450155413035746
13.14546342852472
-16.2047682713829
-23.78245913180823
26.84176397453265
-0.1493537692684624
0.127379590139008
0.07574568419091332
-0.05377150508340232
16.99120330632164
9.194500009462491
-20.8335266762287
-1.550164752826368
-1.004477188370367
2.099810664070456
0.2249719588786579
-0.01792563435223119
0.2057637917461905
-0.4128101163062568
1.339382264303145
-1.162640205444065
0.514234007251819
-2.070082093795607
2.718488292093519
21.45344402136161
5.035851605963616
-4.438129286000598
-22.05116634117706
0.05245139429085234
-0.3119052490557067
0.1171740781237353
0.1422797766076815
0.2888620150611516
-0.6073164389224872
-2.136958051015184
2.455412474811378
-0.03465152179432927
-0.225248570282216
0.3769245329179668
-0.1170244408686213
-0.05033065833045532
-0.05187062173951153
-0.006217125849271957
0.1084184059049372
-0.4973077543454704
0.4499077078784851
0.2986909831695421
-0.2512909367320669
-0.05797873228036286
-0.3311399711535631
0.5483233777577319
-0.1592046743784326
3.796724311281041
-2.492698575827843
2.300946705440235
-3.604972440893897
-0.1240778666532239
0.03511587595856654
0.01147525592551311
0.07748673475104266
-0.03137714692635525
-0.085229050952965
0.02909270955862185
0.08751348829802953
-0.02384314938477759
0.1155034542334481
-0.1414168480541643
0.0497565431888073
1.96625795754082
-0.9867536106083138
-0.2489010770700724
-0.7306032698798057
-0.661977315628082
0.180754257930919
0.326007215048653
0.1552158425724886
8.734296800669764
21.0195045238619
-27.22237567427701
-2.531425650241909
-1.265158615370797
-0.08579943469080861
-1.371652011077266
0.4377590407919228
-0.12505923090885
0.08778289535363866
-0.4004827052504719
0.8353955621191365
-2.159749255723971
-1.004632270327783
-0.2100346238355302
1.516206855884205
-2.087679653419145
0.7815074213126942
-0.1546436064211749
0.2158705563412298
0.001196524301008118
-0.06242347424250627
-0.2307011758973704
0.1138633154985174
0.172359950006499
-0.05552208963306837
-0.8979835150384102
-0.5298304936071299
3.165512640004073
-0.04884478496909925
0.3273809543728441
-0.319985386613933
0.04144921717195289
-0.001976402091287314
-0.1027066627473309
-0.02168216750612881
0.1263652323170748
-0.01160578725536253
0.05442793275277674
-0.07142524710054192
0.02860310158736771
0.007464997165543392
-0.1366151887746251
0.120757171369985
0.008393020214318821
-0.07246116520189687
0.07312707514967433
-0.03011563253999505
0.02944972258225069
-0.2354426278747408
-0.2313019485817079
0.4570990462096958
0.009645530203493895
-0.1330461738111952
0.06244824374480222
0.05843067797604398
0.01216725207328734
-0.1075603232491009
-0.004220143032714219
0.09686614772488074
0.01491431853779577
-1.940801161657367
-1.172926524102728
0.09278878353437739
3.020938902373048
-20.01902895568026
19.21160852584446
0.807420429858443
-0.1521458866742278
0.03718023553316437
0.0916760502871475
0.02328960083254795
17.92822897626175
-14.79339209536753
-15.22487434378744
12.09003746303963
0.08222781589446815
0.02191913567388576
-0.07620992697845076
-0.02793702461945675
-0.1551508136067374
-0.4917669724683809
0.4379293439241289
0.2089884421200057
0.1252936181713415
-0.5837567847389986
0.4873352891006977
-0.02887212260981393
0.1391932698405001
-0.07936658518870918
-0.0943109252517582
0.03448424057135305
0.1968300498324418
-0.2225310983004374
-0.1548047290576337
0.180505777487057
-0.04775676901946427
0.1397569104103718
0.1727177450308637
-0.2647178864456236
0.8497976869940989
0.6101045290893713
-2.197785638750106
0.7378834226315822
-0.008424460765674628
0.1123382652060018
-0.05288456143687504
-0.05102924302495067
0.05670313890887409
0.004998168076363613
-0.03566253714115054
-0.02603876986484958
0.8225535603295847
0.833888854124239
-0.05101844173244295
0.01699334527921931
0.03402509644567796
2.781603451167551
-1.641417536951337
0.944554031636323
-2.084739945881259
0.2213348331814498
-0.09388402426227213
-0.1054899070062118
-0.02196090194525227
0.09488836018645685
-0.0146395924206652
-0.05679981966534495
-0.02344894811902192
-0.08173714489705332
0.4464988194317313
0.4030195217271893
-0.7677811963281089
0.2619653558050048
-0.1851119543550254
0.1548495721728177
-0.2317029736376771
0.1139047979435928
-0.1689051310895797
-0.2465977422989288
0.3015980754148029
0.05876196958431213
-0.1189734999000029
-0.02542509623020107
0.08563662653199279
-0.09480706723037942
-0.01848688280832677
0.015695190601462
-0.09111012421320942
-0.09479821254970908
0.09358644450999722
0.09232189223096249
0.1907651939165692
-0.1113912977577561
0.02083376934258768
-0.1002076655087386
0.9098316625215193
-0.562089071797118
-0.3780127333094978
0.03027014250460423
0.06714343495113272
-0.2846251711215708
0.3089532319930073
-0.09147149586440236
0.2639029940910499
-0.03853692380791296
0.008576420025345723
-0.2339424903366301
-0.07109218385094833
-0.2404442989932922
-0.1777764609093525
0.4893129437435886
-0.01666117016490065
-0.2018778954408439
0.4038924804194378
-0.1853534148343609
-0.09590889701038788
-0.3011408115299637
0.1039041405483146
0.2931455679736667
0.02809385362032069
0.1457974152324699
-0.1965094172687615
0.0226181483878116
-0.1014435990298936
-0.0776717119259647
-0.2615720958113619
0.4406874067496414
-0.2027620637743426
-0.2841569883074213
0.3434531318476665
0.1434659202267366
4.807885976331665
-1.494945085589405
0.04835614240328571
-0.04711602671559557
-0.001240115699373333
0.9932168845018885
-2.21795849700501
-1.453014738155832
0.03022401082179705
-0.02129232015317293
-0.008931690676869906
-0.1897717372026007
0.04889143428671198
0.02525844676893657
0.1156218561276056
0.002551158784814709
-0.06309155314442663
0.1554688755088801
-0.09492848117455747
-2.325036505501185
-0.8245720588465052
2.611475957499139
0.5381326069632173
-0.0353707887789267
-0.0910529993375329
0.1323982535115906
-0.00597446541240361
-0.4373714529893533
-1.183791070306528
-0.8595229455544905
2.480685468870023
21.09870433816597
0.01896406051380476
-0.2705416649258165
2.830159828946969
-3.722258369431657
0.06533708418365261
-0.09260875606139708
-0.03381908123415668
0.06109075309949682
-3.059497155752556
4.885019074482877
-0.1395680478554492
-1.685953871004606
0.1015897398234464
-0.04747740599590646
-0.2642585313451429
-0.2654915274672108
0.376297727968684
0.1534523308185061
0.1856996394655304
-0.09441157259225592
-0.02536757254123827
-0.06592049434805866
-0.0613555334334955
0.2307517128214224
-0.2366215828983813
0.06722540346522131
0.1826380630996404
-0.2894707487280006
0.3035859608616577
-0.1967532752645513
0.03109913633014361
-0.02017545210018198
-0.03881305210949884
0.02788936786933361
20.2041023851533
-18.65604347153957
-0.4992384020511957
26.74171487264384
-26.77362392704141
-3.362362565445776
0.2249169120608565
3.841957844352381
-0.7045121908626668
-2.045969144020334
0.343546821822854
0.9170531638981059
0.7853691583000671
-8.038028779354484
-4.774150502843362
6.926981324150022
5.885197957769049
-24.83459611935001
-21.06760311445343
45.31483733492851
0.7638858122089229
1.588064279840256
1.385538138476656
18.70576927464149
-10.87535702235185
-7.830412252301935
1.199235144449984
-2.366579547784902
-0.06510297079549107
-1.71501710077437
1.139820957873916
2.327048124004618
-30.93537607150968
-0.8423096914952898
1.584045089632863
30.19364067352149
0.09705270906005507
0.009140300172474757
-0.1215630495724685
0.01537004031600508
-0.1685948426366259
0.01939224439595742
0.1492025982252665
-0.09341582281954869
0.04109559549028667
0.1050031728100299
-0.05268294550034704
0.5408680205033307
1.42780612035856
0.5359270853417174
-2.504601226055267
-0.614483658071463
0.2153248125010958
-1.763603800911671
3.113233370371241
1.907285908100606
0.7559326387188823
-3.449686123619301
0.7864675767453383
-1.912215653608489
1.869509904803068
-3.100288741969783
3.142994490952685
-0.3842444073165838
0.1796367249251837
-1.942269322637
1.664473196183428
-8.92799176071669
-9.977116068445524
-0.05428036513778797
-0.1507416292627723
0.1149332910530364
0.0900887033262448
0.1185501208097101
-0.3413981472375258
-0.3565902130752973
0.5794382394474725
-0.5196389037696603
0.3595256691590858
0.1210908285345171
0.03902240600314563
0.4568439700132185
0.2149302022913452
-0.8247163999772312
0.1529422276362274
-0.3588648932439452
0.4843850384413291
2.209409223106367
-0.1496421561669833
0.05725227589865019
0.01522478206556462
0.07716509819629395
0.008814259363881841
0.02219793867105983
-0.1216698961356245
0.0906576980902947
3.129184822890185
-1.074438663229229
-2.591019017031331
-1.163936973811725
0.5904609816069659
4.753372646230523
5.573878975287023
-10.91771260306854
0.1921342082237815
-0.8606746064651282
0.3946982052161279
0.4659764012412321
0.0741033606962432
-0.2774498741858848
-0.2122975486750237
0.4156440621303325
-0.6460776334922921
0.2504305458951371
0.5538396103758851
-0.1581925228159692
1.799132977390036
-26.1783166001713
1.747055199773994
2.849166185949849
21.58209521449949
-13.8837743813701
7.775212753612338
6.699022609504814
0.1816422915335157
-0.07011327792317663
-0.1197784914535463
0.008249477826484688
5.170804084999648
5.92323662388902
-28.46640354166121
17.37236283296971
1.651962189289267
-0.7779288034197653
0.2836230808438966
2.680752058866815
-1.765139995177037
4.077580724213481
-1.737399835805935
-2.954640376801585
27.63075949068372
-13.62941808782907
-14.00134140274406
-0.08223083055270607
-0.002239843956660003
0.09773819788284709
-0.01326752339171108
2.393154504454663
-3.668328439702112
2.004386068741787
-1.906483698522271
2.732257458820802
2.387418320047392
2.210021366574952
-2.204285182089417
-18.86913138235898
8.389058777442266
-8.632363596887766
4.371980637247132
-1.534406904098248
4.214407435359455
12.65481394356812
-7.848704303148825
-4.263229512702684
-0.5428801278230566
-0.008770511770774151
0.07534866136388133
0.007846287994116262
-0.07442443760700108
-1.289794443962363
-0.7400326561823869
-0.4638393966435623
2.493666496709456
0.3859587490837337
-0.219708211096756
0.112442721971864
-0.2786932599889918
0.04317475500948061
-0.06479292445592502
-0.2090830064687976
-8.087495405754408
9.073136579640547
5.236838268612748
-6.222479442467915
2.64184396897998
-2.004346780852798
0.7329530998169576
-1.370450288046028
-0.06167338852356935
-9.227766362841439
-1.710253749108713
10.99969350014203
0.2488805875187919
-0.1669612848045263
-0.08191930272169448
0.09166903519544949
-0.1617124204155436
0.07004338520296743
-0.05505902972661911
0.2917666441937203
-0.05494078267350672
-0.1817668318147452
3.696332105628897
-21.700679372326
-4.086616391975839
22.09096365877645
-0.1418096609765925
0.1361686159832143
0.1674006887359238
-0.161759643779546
2.632591359208816
-1.26546257427479
-1.804500237897605
0.1974857332195738
-0.1058166980374004
-0.1477566040680554
-0.05398878588330213
0.2337204045053452
-0.03197501459182394
2.929880054731988
-3.504333346596562
-0.05195711201546233
0.6264104037499636
0.3642981170621438
-0.0242720362353648
-0.01981690596068576
-0.3202091749517892
-0.01007595177859376
0.01428607158091512
0.08697635177193518
-0.09118647159402234
-0.4377394239764907
-0.1117054482436379
0.275919765478474
0.2735251066937795
-2.311563299343546
-2.1053546370781
-1.457749571474633
5.874667507931236
-0.08990596463901708
-0.1603861697762053
0.1074098334030937
0.1428823009991782
0.1058742779345055
-0.1932887740213163
0.08741449607067139
0.06628266555136975
-0.01486105759047225
-0.09186460436245807
0.04044299638046591
-8.407387013011091
-0.1338475486553692
0.006293432559958625
-0.01598831247670986
0.1435424285476675
0.02464081057821675
0.04220776281201664
-0.06684857341051471
0.03271424088048922
0.05166807183676499
-0.1088248035840547
0.02444249084698266
5.887238403168635
-4.027997487756128
-5.339351063068784
3.480110147500538
1.963260024776596
6.109151516011618
-2.421578478333555
-5.650833062515176
10.21136179733445
-6.588239508876742
-20.83185288920596
17.20873060086775
-0.08769270510257189
0.0643539253145694
-0.08350020542492574
0.1068389851859566
-28.226669481352
14.77272003261719
-3.972483521187326
0.7176398455866473
-0.3637470468879665
0.7122571012005711
-1.066149899872135
0.7281932790588358
0.148547825250767
-0.7216661219978154
-0.1550749823421344
7.777734577579483
-1.011424963917813
1.958651395764406
-8.72496100947296
0.1001270453167618
-0.1289624509522841
-0.3333268741850392
0.3621622797951158
16.90238509357797
-13.40655013563523
15.2099343166937
-0.6384773792042836
0.1840385276111534
-0.06338619364917429
0.09601669359392737
-0.03263049995594033
0.06414856789699996
0.1244448328896812
-0.171429916150903
-0.01716348465124629
0.1103065658139321
0.03031492362821893
0.02166352911205055
-0.16228501858848
-27.148418452949
14.78923497496325
1.237371234912994
11.1218122432782
0.3194784412930547
0.4494032014257674
-0.3802194793470374
-0.3886621633951343
-12.74882938166354
16.41259456186044
0.1061078639599006
-0.3855848835301688
-0.1161102215987368
0.3955872411239864
-32.02655378936018
9.019920611708946
7.609140019636155
15.3974931580943
-0.1583925988601957
0.03161516508654817
0.05940815347109121
0.06736928028003969
14.54430903445983
0.03205401873792906
-0.06649999018015701
-0.008834552284676027
0.04328052371391089
0.4474334030114698
0.06251182249323604
-0.5502594302045247
0.04031420469573845
1.436641916787515
0.1570964380402685
-1.024820525467883
-0.5689178294417003
0.01573293675321954
0.3832823530813518
-0.1137948692234603
0.05707972086714699
0.2042459784672912
-0.1475308301419825
-0.07729127336250488
-0.1292448037355735
0.01410014483979464
0.1924359322466923
-0.211867744585734
0.0215550578805196
-0.0002675837278649348
0.1905802704049334
0.1323857919801638
-0.04133592952648663
-0.09104986247513491
0.01461200606345013
0.04897248339475108
-0.06358448947309851
9.734007440841543
-14.14451491767272
4.4105074767874
-0.06077945242412856
0.08136078874001675
0.1806552797116282
0.2111566447998842
-0.131668193391539
-0.005695569913202927
-0.07379288153223074
-0.1020926939179006
-0.3052776994453951
0.8350640926140256
-0.4276936992724422
-0.1275738917528432
-0.373022420046222
0.1927882236215195
0.3078080881264863
0.2090560698068696
-0.3898618328623704
-0.3677799589031611
0.5485857219435263
13.59570139605786
-26.24030936444714
-14.50381048439639
0.8938970192525514
0.464623538287219
1.754015656350392
-3.112536213922279
24.80966346233448
-24.36514312334956
7.488869438784326
-7.933389777701005
-13.19314220897094
-16.1485882550645
10.15756724169344
19.18416322248954
0.1329582892662638
-0.05173340173154647
-0.0812248875592792
-0.01954373421600655
-0.006446798543929101
-0.1013005040926854
0.1272910368160994
-1.25442612557203
-4.793956532391066
-1.013384712407183
7.061767370356135
0.3988925694975667
0.09525541295151982
-0.5724248269934759
0.07827684453684168
-0.04597011305790247
0.148052675879205
-0.02053043553642617
-0.08155212730695932
0.0423490122081336
-0.0212911410634028
-0.07581898913270603
-0.02907723469235854
0.05921177607402073
0.09016661785485366
-0.1203011592736641
-0.05385199783299326
0.1099409804292588
-0.05608898260970534
-0.04400547602937003
0.04500867416893403
-0.1332634600243007
-0.05049740043868903
0.1900169424079817
-0.006256081976471461
-0.0525499240151904
-0.03637671013957918
0.08892663413229211
-0.4994121868257556
-0.02159796825974789
0.3571796805334317
0.1638304745222652
0.1996602056935723
0.1795289108825371
-0.3267377223102749
-0.1411779903103057
0.09308322260966732
0.0747169578078226
-0.02662219013305498
-26.26677195510786
25.38116741620259
-3.689464425440188
4.575068964514322
-0.4840480343979685
0.0967820073396001
0.3130061947439047
0.07425983226720745
-0.4253320082823543
0.1649066470191445
0.5393456590269917
-0.2789202977944211
-0.1664347760867669
-0.01729834229927288
0.1081597919675674
0.07557332639723384
-0.06828448904756453
0.2813752782438966
-0.2475031884562013
0.03441239922816076
0.07361675794206325
-0.2179689436388675
0.05109547906178118
0.09325670660618127
11.54841150995954
3.325863487852529
-1.502035189847924
-13.37223980790747
0.1174085491104754
0.02465241261360681
-0.09679675776521805
-0.04526420398518895
-0.08297251102006958
0.2080451685352413
-0.04305240154885429
-0.08202025599466314
0.1161958887344656
-0.1236455476208525
-0.1542627615480512
-0.03868909880417157
0.03778081385160875
-0.04811912693180499
0.04902741187239723
-0.05903906479938788
0.4087273815480729
-0.3042989393283868
-0.04538937743931713
-0.003715781495347226
-0.2062305021129126
0.1946070369197555
0.01533924665709997
0.1341554252946707
0.02861256624140167
-2.34875179081839
2.185983799170102
0.1200737918346966
-0.01870198356260755
0.04628533876333249
-0.1476571470559439
-1.377068192726318
2.070996262723761
-0.2359339356560786
-0.4579941343477217
-26.5648552846602
1.358105455252722
26.8613987184625
-1.654648888978291
0.07749871937948123
-0.3186058355780822
0.3323985517127662
-0.09129143557000671
0.1021813254536584
0.02114295254436578
0.06586517526830772
-0.18918945329135
-0.07199893241588427
-0.02353706413255767
0.06490990008743941
0.03062609644551966
-0.5269058393639052
-0.610706364071915
0.5914967852151346
0.546115418209937
0.05722733462765141
-0.2606618562895709
0.2051506683099915
-0.001716146685168566
-0.1125213192411095
0.03566874322814233
0.1650123005051957
-0.0881597245141173
0.02712358251116925
-0.1028539787606558
-0.0166934936746202
0.09242388991297398
-0.3818209761141179
0.3642590470313648
-0.6632436742355888
0.6808056032667391
0.2555821002293269
-0.01540776969193253
-0.6487704866447346
0.4085961559939355
-0.07213730552372882
0.1445051096313363
-0.04993649766371142
-0.0224313064611817
0.1451825086597702
0.2743195071075567
0.01150124343355468
-0.4310032592209028
39.27061938624344
-25.22427573232079
-18.13459289665506
4.088249242781588
0.3529721487615288
0.1084862678239843
-0.1734284773713979
-0.2880299392485192
0.01587910876260496
0.01895472821043504
0.2066366875513241
-0.2414705245551116
-0.6601882409862534
0.129627844898015
-0.09359771465211228
0.6241581107036971
0.08785288562474806
0.04182540492070699
0.05469228886053046
-0.1843705794251943
-0.04877591362711332
-0.05400829707594666
0.02040212940924931
0.0823820812807015
0.04577647554287278
-0.4080356383852837
1.720605092136103
-0.8488590019622617
1.276445294899453
-2.148191385163064
15.54017852203042
-10.96085805787184
-0.03512487263008766
-0.1213960359253876
0.1355910356927131
0.02092987283906395
0.002528531767032354
-0.1306602081449071
0.02163045268776368
0.1065012236739102
-0.1340598128423116
0.1335846313388607
0.03540099520608096
-0.03492581372378259
-0.2582926967802221
0.1101128201306523
0.3266744993469004
-0.1784946227272926
-0.08002071485731035
0.03628546679511911
0.01712990517614009
0.02660534286996034
0.08710587253976917
0.02608664565266067
-0.004845252576671131
-0.1083472656443806
-0.07412934222523911
0.05860355949179901
0.09655757438789574
-0.0810317916758186
0.5144202772632743
0.6860094783618467
-15.1476678400368
13.94723808464239
0.1566160260328132
-0.1690155552176596
0.01140238975601878
0.0009971394065168603
-0.1664768128411319
0.05079612759854735
0.03643749718573186
0.07924318802523968
-0.1918498172040819
0.342307788107072
0.1332800777920565
-0.2837380487416061
-0.04877424597727741
0.03873744508371939
0.0100368008790414
27.69565420900659
-28.46423311449425
-8.375619061144493
9.144197966570582
21.39687833491511
-2.658572216212286
-21.79628796682738
3.057981848119017
1.953329493728518
-2.184962625478279
0.3265735661644663
-0.09494043449721867
1.842846220102431
13.04497077201492
-8.339613547658397
-6.548203444475846
0.1624559591592045
-0.03297841882118029
-0.1294775403625083
-0.00118126140062042
0.01481673969338705
0.07898951199118555
-0.09262499029229827
0.2790334803622772
-0.1201642449836075
0.4408630786444269
-0.5997323140542201
1.829002144981776
-0.138888304637854
0.2870716766951782
1.211903563436123
-0.4761054711242041
-2.039542009841462
1.303743917497279
-7.3147954132882
-0.2700643671200239
-2.430233486715251
10.01509326735177
7.632841546426667
0.8952005341796946
-8.209338997587974
-0.3187030831024035
-0.3119135429251748
0.1374085171006786
0.1267482567852348
-28.73277557604864
22.23026291174805
4.516942006684403
-0.1130070781604708
-0.1438794108135647
0.2402253187972301
-0.003260237646964476
-0.02205875500529724
0.0253189926448816
0.09874221739873362
-0.05115309608338988
-0.1492801982955911
0.101691076964516
2.789639220240595
-1.735695551652664
-19.93303995223989
18.87909628380745
0.5678489718170026
0.1030911032730817
-0.7684609653125347
0.09752089018412878
0.04905003107827186
-0.04589242046112815
0.1365992997787622
0.3565066822204364
-0.03640319798292804
-0.5119719057969009
0.1918684215454908
0.1099415640820087
0.04268001626768748
-0.05309531614249939
-0.09952626422026033
-0.09295295498318112
-0.4151591827354799
0.1949755401804503
0.3131365975203952
0.2739684789371337
0.01917003400556644
-0.2673644760464539
-0.02577403693371876
0.03390892277399975
-0.1951047858714788
0.02909057230880968
0.1321052907419489
-0.03663846552875806
0.4703409537788753
0.2610377420884713
-0.694740230373958
0.1990559352444844
-0.2529504600063489
-0.2701534474943381
0.3240479722101597
-0.06353586181923282
-0.2866456179529766
0.3037414031023116
0.0464400766045601
-0.03949522606443592
-0.1454829130158774
0.1849781390595092
-16.85871938558838
15.58903732308654
-2.58683948317433
3.856521545486201
0.08033049627457589
-0.1198257223471652
0.1128708434343512
0.07904262299364465
-0.07084937146235125
-0.1210640949830897
-6.810421658499962
20.14372086147899
8.120144818500103
0.7180268909813957
0.01817389367597524
-0.4571673043073968
-0.7980338015837565
-0.3184244339738176
0.6574753429878011
0.4589828924993973
-0.03324630821992813
0.1155974997252624
-0.08084206352494032
-0.001509128002878446
-1.062002991691186
-0.4023943249350118
1.356958141265231
0.1074391752372074
0.005399984596677522
-0.01213319476025396
0.03783234648419195
0.1260496526868738
0.05406373832657668
-0.2093478163703311
0.02923442533886183
0.06347154216183926
0.1429086067922347
39.23395757640484
12.30819347151352
-37.33640111742177
-14.20574993036348
0.04454987873393355
-0.08477086820210963
-0.001723278047678365
0.285461865239711
-0.4865006509798822
-0.3497934570477815
0.04125293568034506
0.3539919718985141
-0.04545145057131193
-0.269248914142958
-0.2696945075830566
-0.1753259471508617
0.714269368816345
-0.1375070975422021
0.1789477945328918
-0.07896281769398122
0.03752212068432727
-0.566017018193521
0.4587789549918252
-0.01079882426632462
0.118036887446609
0.08098697966101705
-0.008879475415948719
-0.009878350577479225
-0.0622291536956518
-0.6548466099956217
-0.1029984918574037
-0.1520479758461173
0.9098930777070641
0.1118679876898025
-0.003643295356552005
-0.02431948365216745
-0.08390520870254127
-0.3623668813191179
-0.1089818201701288
-0.04829020232231652
0.2464589356022718
-0.1802007418405296
-0.06625819378090464
-0.0362891545407094
0.01765568498574785
-0.1166371906349052
0.1352706601650893
0.03917463320893354
-0.1141759400889512
0.1008557604292825
-0.0258544535722521
0.5373599166036346
-0.7392316841839157
-0.1221289625037994
0.3240007300414611
-0.08336170283157071
0.09055408070080186
-0.06112121840678159
0.05392884050202287
0.1383700202122904
0.06977700466916378
-0.0009465063647368285
-0.207200518538625
0.5850480449739286
-0.3676216565445091
0.03412415617549313
-0.1535763724607265
0.1098716554220455
0.009580560838775511
0.04253164233322439
-0.0005807667174585016
0.3388561601838698
-0.3808070358399881
-0.09206769621634567
0.007130740401584284
0.01293802338831744
-13.77494872747176
-2.579536749164014
-3.591390532363174
19.94587600903978
0.4629491080680852
0.07873495672920675
0.001974666696922479
-0.5436587315014679
-0.04359130786059952
-0.1912341877159332
0.1817781062489196
0.05304738929062139
-13.31345002015252
5.384736856079519
12.99225795722656
3.276991309804694
-29.58269928717093
-0.1311709460505283
-0.03987875211071922
0.02329309406874978
-0.04926387000138346
-0.09550478343949206
0.1855845337100248
-0.04081588029841758
-0.3775038849220915
2.313108991653284
-4.289577470110249
2.353972363439231
-5.633107599963316
15.82092897866707
-8.34497515857305
6.529685637798151
-9.995117447283715
15.14687116104659
-11.68143935152394
3.23764786166207
0.04181246481389867
-0.6773282260192502
0.7728824062020671
-0.1373666450323339
0.1460302541420589
11.00673993199135
-4.685936743598251
-6.466833442513472
-0.1108151313134392
0.0183520298026234
-0.09863247039835038
0.1910955718662555
-0.6417155282593378
4.066540580561458
-5.162224888166487
-7.722117096698303
3.301768797523452
-1.164415552835026
5.584763851999831
-6.666465179064513
3.909786814415596
-6.823821899113648
9.580500263643851
-0.005984840709945264
-0.14859850242131
0.031897731192944
0.1226856119199757
-0.03717339027608771
-0.3448809162635973
0.3619889160982555
0.02006539041195823
16.51628630041511
16.27371495763626
-12.29786686247687
-20.4921343955057
5.275926907627941
11.2403593928354
25.12888062380704
-6.382511767310298
-2.472653898803886
-0.04898983708854637
0.1607407059111791
-0.03994251295258676
-0.07180835589435418
0.1382791032371753
-0.09103331052989537
-0.09623562981841913
29.74319209172892
-40.54508224607756
3.089004668614522
7.712885485776182
-0.05463471969310692
0.05008182576932408
0.009242743810819073
-0.004689849918824786
-0.030268566801197
0.07170961960780017
-0.04144105282173056
0.1400750396570031
-0.1764880696461827
0.3282323728192028
-0.2918193428743465
25.79447901389372
25.98168397922029
-0.09986224731765765
-0.01194785834648772
0.1286902435262138
-0.01688013788485226
-14.28613944748714
14.29042065772122
0.1240568221296701
0.02387226365076547
0.02225019011416439
-0.1701792759213681
-0.02776494587464469
0.01243052552138519
0.01533442033852068
0.1667378710308595
-0.01470935446550144
-0.1788264984232231
0.02679798184443532
-4.628138444235045
4.968302372406713
4.648609394836313
-4.988773322959489
-0.01878051594010869
-0.05044853814446281
0.0119947613779398
0.05723429268668678
-0.06265972287566329
-0.03609725956016957
-0.03665864309460909
0.01787812714839883
0.03530834842756984
0.06761312913590481
-0.01200659591679105
-0.09091488166142594
0.08298979796577598
0.1348274803214181
-0.01379885150330784
-0.02285979159879153
0.0757057269506881
-0.1162000099895377
-0.09975827739332661
0.1402525604122204
0.04568679616657993
-0.01488270185025162
-0.03080409432784335
0.02443280568888409
-0.0754854590049296
-0.1055621660645438
0.15661481935139
-0.3051312190430761
0.1254291091643817
0.3201871805081231
-0.14048507071008
-0.7442604532672321
0.09114827877794263
0.4925419442279618
0.1605702302361335
-0.1085796705072448
-0.2027343319519387
0.426653580250682
-0.1153395778455398
0.3221566180314281
-0.05231166193445664
-0.5047114871701005
0.2348665310685486
0.07746602680491224
0.01891492457626586
-0.01573115023018078
-0.1378813917983386
0.3290237634685092
0.09399773737108977
-0.2851401090964898
0.0710241836830852
0.05021618379929095
-0.1212403674935112
0.09715261331827156
-0.1101906734409986
0.06428929594667404
-0.05125123584062719
0.7894121047906563
0.01166542338595127
-0.4624233632175762
-1.26656544278769
-1.296771467250913
0.9353178431708195
1.628019066854712
-0.1093682547189785
0.03356015098172647
0.1099322598997898
0.07679822922592035
-0.04116488502738191
-0.1373525906915562
0.09955576085695626
-0.01610215509890345
0.0538989848969189
-1.171031276283897
0.7483196905358638
0.1904056006696519