/*--------------------------------*- C++ -*----------------------------------*\
| =========                 |                                                 |
| \\      /  F ield         | OpenFOAM: The Open Source CFD Toolbox           |
|  \\    /   O peration     | Version:  v1906                                 |
|   \\  /    A nd           | Web:      www.OpenFOAM.com                      |
|    \\/     M anipulation  |                                                 |
\*---------------------------------------------------------------------------*/
FoamFile
{
    version     2.0;
    format      ascii;
    class       volVectorField;
    location    "1.4";
    object      U;
}
// * * * * * * * * * * * * * * * * * * * * * * * * * * * * * * * * * * * * * //

dimensions      [0 1 -1 0 0 0 0];


internalField   nonuniform List<vector> 
19631
(
(4.993586199522952 0.009962522791317818 -0.007949529127892124)
(5.026006553742813 0.4081632457935469 0.6736300601207408)
(4.894911210931974 0.02898609783905327 0.5533253236752674)
(3.887998689013506 -0.03292003181852612 0.265898819159627)
(4.999472020601056 -0.005404355331687376 0.001389410637033642)
(5.082897754054422 -0.08603759565391667 -0.02142657898465349)
(5.038319285156348 -0.01049474036405006 -0.02338767914993332)
(4.909486753014305 -0.07328284356004242 -0.1181583430232586)
(5.008641195718549 0.05607679011900567 -0.02541209674000223)
(5.018948534227444 -0.0410666851116394 0.0115071356276573)
(4.996433386580347 -0.05600287156930473 -0.07821516459286468)
(5.045484727277521 0.01600434727429475 0.03607147117594014)
(2.228104738171595 -0.07317735244760852 -0.07300499890392)
(5.027161723369307 -0.03584035313508764 -0.003759763525777846)
(5.020577990065362 -0.01824046640881262 0.001868460135995938)
(5.021380283987003 0.02852125433492576 -0.03673907221686999)
(4.993591400575384 -0.2391200261165583 -0.1167766140372091)
(5.020842339813637 -0.01850584325448183 0.0004710131300764313)
(4.987984839317768 -0.003014142242323547 0.002300321888403832)
(5.054962904951736 0.3941550355412122 0.383543344522103)
(5.006274500491422 -0.00621267982090625 0.00984333412800065)
(5.029007975708715 0.01391171536360186 -0.04872211297627349)
(4.998386384936627 -0.05409854137640496 -0.064806285972956)
(4.906114346584849 -0.3162348728859235 0.0008795411633129814)
(5.030493975532499 -0.01759498862478002 0.0008590549755388941)
(5.028829009222386 -0.01558739368498097 0.005685721535020618)
(5.06185233269636 -0.0007282002936930124 0.06087733181629162)
(5.070875422098115 0.1276720277991072 0.06674316935752561)
(4.185233716019025 0.1596831518753144 0.08189990079792218)
(5.048980305477508 -0.01804120234987373 0.01587572186308296)
(5.006100673818387 -0.004787429904179078 0.002411301467270359)
(4.99433928556062 -0.08237487702499849 0.07946446683788144)
(3.321105037711041 -1.309932407480824 -1.17015086548458)
(5.033618595122306 -0.01249996594923734 -0.01310109421948148)
(5.00457143906722 -0.1299907994490821 -0.03993265771426965)
(5.02802935576777 -0.01003062073610803 0.01466633768022209)
(5.064175468089913 -0.03422356177148959 0.04635163803432715)
(5.003587364455659 -0.02043817832166463 0.004579707301196429)
(5.023817070008581 -0.06846191252607643 0.1335832299151277)
(5.066250060632917 -0.04329160632156055 0.004944652185699116)
(4.950470714986984 -0.1951204959438598 0.0401370595414173)
(4.378983342876642 -0.1823377264778832 -0.3596077437587334)
(5.073969070971725 -0.06605791579552021 -0.009892571737070387)
(3.991455306256392 0.1778632170713669 -0.00430157993993552)
(4.958933557394746 -0.1427775042183409 0.05451154220342017)
(3.837202181159959 0.3941510217967923 -0.09131357168861881)
(4.559450380109346 -0.004857145248053754 0.2309917953579478)
(4.985038230254751 0.2499449318367622 -0.5625233418967333)
(5.068431940536973 -0.04860914304402908 0.01350835812560603)
(5.018639799503576 0.03772891504525921 0.07720572558418892)
(4.970993238578592 -0.008880730680452129 -0.004084908689316658)
(5.052552403816027 0.01263090690901539 0.02429789132723593)
(4.431447539222548 0.04134194480613497 -0.0598195898728617)
(5.074977238631507 0.002729100753363341 0.005224357772929468)
(4.969352089060151 -0.03861230136823559 0.04347349467620788)
(5.061899850907147 0.01623050653102063 -0.173702328931303)
(4.999959563439505 -0.1751340192136845 0.1644195406489041)
(5.034411861458762 -0.005559899721474843 0.01651856580056545)
(5.069951878703914 -0.03078250025739426 -0.08308879303928277)
(4.041002032148276 0.164813685455379 0.1126763694001746)
(4.29125739520021 -0.06034521612011555 -0.06996487023360097)
(5.148644577006175 -0.1529116181039526 0.2166417652772329)
(4.846955319189238 -0.04498374780536961 -0.1499115083667873)
(5.086988553352962 -0.07972124731700507 -0.001336918583760851)
(4.268004764218722 -0.4458454633238686 0.01785052315183191)
(5.022435487403119 -0.06112059979775043 -0.4683469360864105)
(5.040890768086833 -0.02300612346484835 -0.008879374528525887)
(4.98840079544985 -0.01214260279464718 0.02117933005694268)
(3.624540001266428 -0.5913416041031978 0.2706761555056212)
(5.009340924898752 0.0123919127129581 0.05935307821375189)
(3.87713912531311 -0.02504971475299878 -0.09081194519057467)
(5.092925413836645 -0.07653533872046463 -0.1099650172721751)
(5.093391026383355 -0.07138659849660106 0.01460633727994911)
(4.737828944238517 -0.2919177310091827 -0.2723819042534635)
(5.072538039817077 -0.05559688674429691 -0.1255614001914203)
(3.884988886119776 -0.01744435378325109 -0.1299920815162169)
(5.015319026481412 -0.03544045672717785 -0.04538923543127869)
(4.462920469383324 0.06978662134792978 0.2952653979506181)
(2.666461822757866 -0.3024858902118759 -0.02320499568199468)
(5.037565609112859 0.0213619113925588 -0.01774151931104416)
(2.359220919580996 -0.1470760276990608 -0.03311688174012095)
(4.885825054562664 0.1817652054144136 0.08155538912156921)
(4.187748261961883 0.07157523140399484 -0.01700246563960717)
(3.371751393811202 0.1826117782313624 -0.1772748717140794)
(5.049027650045015 -0.0369412504549585 -0.05911981870886669)
(5.136511528334144 -0.1393110609344865 -0.04868951406795813)
(5.099311267646263 -0.09638518163927857 -0.001866892732153146)
(3.858308116953223 0.1684227599953661 -0.05490531742643456)
(3.907616059951899 0.02882061314002504 0.2896246380663614)
(4.55722042483898 -0.5376406623580043 0.2549906995708591)
(5.071979924268886 -0.08005069636836458 -0.1141254798159295)
(4.285099631507273 0.0390410913381197 -0.08368494100379376)
(5.171845117946456 -0.07851609334689852 -0.1321753124332326)
(5.011008940852808 -0.2304606523324868 -0.1223591696685563)
(5.073034633933962 -0.2010735146429223 0.06374512205073958)
(5.112673508412094 -0.1078307244407033 -0.143195333588942)
(4.038226417085113 -0.13468003373403 0.2590542072494498)
(5.023933025135837 0.02615101146827284 -0.1728710651864804)
(5.145443231443559 -0.1721383301663609 -0.05179770787837887)
(5.076880376361591 -0.06622833855481319 0.0173183505222476)
(5.02149827654382 -0.02806485212598371 0.0004990087921037598)
(3.065971364535839 0.04813488369256916 0.2343403156074611)
(5.033731035705882 -0.02014312069454407 0.01462090251983581)
(1.66343663398413 -0.1586173110830443 0.0690364769986879)
(4.801867039077409 -0.1789227581007331 0.1810673744960945)
(4.945438663404387 -0.1245397921547514 -0.09477551089591833)
(5.046091270955697 0.0002631261830153979 0.0168601876197789)
(4.094580113674607 0.1798016679127263 -0.3009092004258955)
(5.029194297525844 -0.03433804034113375 0.01275233960959893)
(4.978490279175207 0.00381603146442646 0.006067214445893588)
(5.074978057620615 -0.054934152681569 0.02609079167184215)
(4.187100174474926 0.06937040772318265 0.06279621116000293)
(5.024067575804373 -0.04301481548732273 0.002712912568245967)
(2.726857719578894 0.0007785584208713971 0.02836461495237974)
(3.32929498446275 0.03804111594924149 -0.04759739014059707)
(4.991034149913996 -0.1796390455779368 -0.07657749252724998)
(4.84526516826479 0.4049455955873855 -0.4667090903462795)
(5.061355583308197 -0.04489028849584602 -0.08729933843205462)
(2.977428406673006 0.1116801296079902 -0.1031004979386007)
(5.005973572995737 0.005351099988245588 0.0003275139358003743)
(4.986930066811075 -0.1273393504397685 0.1081034366685189)
(5.025940078391926 -0.09649451904682481 -0.009077012452391786)
(5.030572713395022 -0.01447812171083146 -0.007724547218833989)
(4.979380347049706 -0.02411330749897168 -0.02540378970217593)
(9.513307005493363 3.935758043807821 10.33371461529652)
(5.026714973994268 -0.01721019904388102 -0.007735044096396073)
(4.553751403162944 -0.04564419346592587 0.1613373340853792)
(5.034752313592458 -0.009594892083949851 -0.007329570783454127)
(5.018390214908097 -0.02277654868057783 0.004974282558692017)
(5.037094121459073 -0.0001505656501426195 0.01917161555254937)
(5.100652966091269 -0.2836766251514131 0.2140095590531483)
(4.391454421796034 0.1859506035517018 -0.2584782389216183)
(3.732077747384204 -0.2784816078982918 -0.001779327594518551)
(3.560930608138621 0.176767784565221 0.06544839977539639)
(5.033916786190254 -0.02107622107485243 -0.01650192247722854)
(5.052778074960773 -0.009289650302496653 0.03445561350138667)
(5.070118123807703 -0.06062184936076007 -0.04095064382237394)
(4.637828657181219 0.04444350527636579 0.09819786949658606)
(5.00140788267748 -0.2297854329116703 -0.08853521746494669)
(5.061382884010061 0.007860479145780886 -0.06524199386859811)
(4.868629696795828 -0.02580991005917764 0.03516609025729998)
(8.427664404556591 1.306309630228697 -0.5595475450614489)
(5.004576706959396 0.03958160164002533 -0.3714554825821592)
(5.107496582220393 -0.08907187038673794 -0.07556763664662967)
(5.072347484190872 -0.05942604820194172 0.09841367907169167)
(5.059985333188087 -0.0133652447384928 -0.05214001347658946)
(5.043641757131287 0.00235777460873152 -0.04595460636846591)
(5.024527999681531 -0.02257529858193645 -0.002639754332327364)
(5.112721586660543 -0.5748223732536799 -0.3409892847356634)
(4.693888520175691 -0.01481405769658492 0.1162671450037285)
(5.013080429742847 -0.005762964918627665 -0.004459982062852396)
(5.05047754746009 0.01699297318320328 -0.001626002491535753)
(5.038070514678346 -0.03957944579132872 0.01524765913257247)
(5.061011245777544 -0.005857011944879713 -0.07384621837136243)
(5.010066060285988 -0.006711484139159479 -0.002833469949211231)
(5.034103253102588 0.02604425009573838 -0.03558896873494753)
(3.612189166445612 0.793817538480095 1.10278864575862)
(5.078543871404542 -0.06009561161461938 -0.07042823452777602)
(5.098330005569531 -0.06254595229945002 -0.02320682682625008)
(5.035286934355254 -0.0472580043839643 0.0009907040956030093)
(5.016718681168804 0.002686736827396825 -0.01792709354900589)
(4.997941280488964 0.03409584939055323 -0.02723253452067311)
(4.353048815357911 0.1252635955681503 0.1404130361915644)
(4.990957947507566 -0.007934631732955675 -0.1671145924721162)
(5.035123289210889 -0.004235503199276101 0.01175077229205094)
(5.032609138281591 -0.002156291840982373 -0.008621062874322863)
(5.026224936625168 -0.01556840398152089 -0.005236910175275491)
(5.018251494828313 -0.01715928437805736 -0.002344124906742565)
(5.003893442470621 -0.005945371534339539 0.00238157727217187)
(4.412202771001116 -0.03245177000900184 0.09496797294970188)
(5.08835148830682 0.1263962110743969 0.06648780709100838)
(4.896638129539187 0.3436810058842417 0.07959187995168812)
(5.056904514303498 0.00232633130665152 0.01659260976113812)
(5.556269749291007 0.03609742431920526 0.004140790963926418)
(4.988478825714092 -0.08616046469886809 0.01216500779304079)
(4.645842521694454 0.1587009403388047 -0.1279427148556168)
(5.067726180390088 0.02984692199650167 0.006157644526987931)
(3.430705114153888 0.03650118490870714 -0.08400363556255686)
(5.047211132363222 -0.02146144816564275 -0.01000913884606826)
(4.694089817862775 0.1754301554197199 -0.1201080270410982)
(5.015237135041878 -0.2116614985055295 0.1645175363950227)
(4.988924214245694 -0.02052497310215287 -0.0325032267551441)
(4.917086652659292 -0.01091046410321539 0.06374131789710918)
(5.1059420272414 0.0186667029658887 -0.01131301933711318)
(3.928659019546579 -0.2576129948477497 0.02345735123342902)
(2.211114421430322 -0.0621159105304905 0.1158213956718491)
(4.263343798182295 0.3091976999373598 -0.1850142273859128)
(4.997842696069186 0.001404987328997329 0.00917273835813742)
(4.679532452751115 -0.002445236139464022 0.1467913755705068)
(5.035165929646864 -0.02541734201588424 0.001124985028443116)
(2.797611201628598 -0.07631614210134782 0.04682687430827556)
(5.101514910757603 -0.06224785947903951 -0.02449928456261269)
(4.956673491783662 0.1474840935466891 0.04443743048997756)
(5.019680809046291 0.01752803001644389 -0.04770148296841201)
(3.587043925897415 0.1231202434491386 -0.08428580343405154)
(5.154112194093248 -0.1751865468183974 -0.03194245156321979)
(5.015358449345886 -0.04725016277020296 -0.01049782705707603)
(4.854112735546547 -0.04616616204235458 0.1134147605795909)
(2.553192142992869 -0.1724007532777066 0.4147689342702089)
(4.956242220046625 -0.1856733761428399 0.3839813028182874)
(3.554673378922631 -0.07731857423688074 1.366289549653322)
(4.997537041011773 0.06300513911297628 0.1997884661775033)
(2.353108033685904 0.04534695736896358 0.2519500846655371)
(4.207384920687425 -0.0633324976702396 0.4723024204607164)
(5.022846810113648 -0.04224003464600465 0.02519304386925932)
(5.016716322615626 0.006882755081689753 -0.01865762339407535)
(4.951508410022706 -0.008527685776482703 -0.01259877487571713)
(3.691542865794362 -0.3993612204829473 -0.1155261380514642)
(5.030023810609182 -0.170397549597392 -0.06284913568233479)
(5.067372155538826 -0.05479739600482959 0.1134987175040027)
(5.070527981946591 -0.06711116461739161 0.04127815341221246)
(5.013106972345706 -0.04679393553000423 -0.3302921225783426)
(5.041118260117845 -0.04780185457426664 0.07034446095885186)
(4.992484756513173 -0.009490582126716562 -0.01015966208014323)
(5.042763589665853 -0.03609578937575072 0.005349803141842789)
(4.228724246764877 0.2415146933180001 -0.3127788818966951)
(4.954599457022237 -0.1225056234096068 -0.1773143715225026)
(4.866655219041633 -0.1371508555323096 -0.09602838727049519)
(5.019422131561736 -0.006529022385539732 -0.009849520606675207)
(4.946293324320889 -0.05557515537387323 0.1635164146423808)
(5.00248438711837 0.0004968457600874507 -0.01600054995650472)
(4.969324186385716 -0.1158867093277533 -0.2480654778235644)
(5.194643463840944 -0.1599498702855748 -0.1404061550930983)
(4.837708615407093 0.2672780108536208 0.2708343122847843)
(4.921011962738088 0.006572486467718167 0.2328720033542668)
(3.058905882296967 0.1429450117067407 0.2732520710535987)
(5.067051379935 -0.05017296618908737 0.002002340591184328)
(5.085806583239354 -0.01274107177585572 -0.005111962189534612)
(4.515116976329485 0.6689816109324367 -2.067334892135521)
(4.764661956392802 -0.255493423940061 -0.1302399679944551)
(4.958968795105218 -0.1321679349065469 0.1232296539495314)
(4.797108024639316 -0.1669798307705678 -0.03775294037640459)
(2.80172970329207 -0.05341384291322351 -0.5817478634945922)
(2.17003813519636 -0.04670801395922432 -0.03087680478213876)
(4.933245096486385 0.004596752142214901 -0.01579951932324622)
(5.070971835096202 -0.07305028466552961 0.0992256337170128)
(4.97792820952851 0.2504568151774891 0.3032911187801944)
(5.102534102360836 -0.09188216935858051 -0.01898128456725805)
(4.491114082307107 -0.04390945331037092 -0.1217830432534561)
(5.058882678195898 -0.06198085329985917 0.02300893483188903)
(5.006237366427881 0.007950430709220557 0.005406756528746062)
(5.012368801024995 -0.0589382221370485 0.00566386335437742)
(5.771864207990613 0.5162793640803339 -0.6245366917971441)
(5.012093930900905 -0.0009482020654890083 0.002283343572444288)
(3.03665659890488 -0.4205718933470534 0.2999292187589579)
(2.944117293488255 -0.1402780532490477 -0.020297001162028)
(4.981674233005847 -0.03651901490437243 -0.05013384033472845)
(5.094719982230248 -0.06120474377520425 0.02564366527294143)
(4.297285279286332 0.01143135336953947 0.08698504329610823)
(4.263903350810702 0.8375432944093181 1.64103569201637)
(2.582303350668427 -0.2268488702684053 0.01957999567091727)
(2.807910918745325 0.02899521236173944 0.02497860488550592)
(5.171945444714686 -0.06734447065361958 0.1503722269894545)
(4.812400303039365 -0.2395458639221852 0.0570662949581078)
(1.901577199946738 -0.1187431848629205 -0.00865013734659534)
(4.53469399173373 -2.214985954777463 -0.2908581675996251)
(5.05589160575841 -0.04874961595330638 0.08179917974798963)
(4.29427382844124 0.08858579956999005 0.07861467904181048)
(5.047871826156303 0.01064760281592971 0.02010836945328933)
(4.253933098294822 -0.03935528539422091 0.001175477330682145)
(4.285707818497387 0.1489682962033672 -0.1354982258311714)
(5.092028874910421 -0.09497233954330722 -0.1739714358006655)
(5.131720520386199 -0.08117803733742705 0.1406596038791659)
(5.030144840886934 -0.1893979937130625 -0.1928796969277932)
(5.03285725797301 0.3596092336196632 0.03516036018144127)
(4.157938290148332 -0.1215133924555899 -0.06250304241032076)
(4.356951535381226 0.06338063535231112 0.150074123124609)
(2.815341539833681 -0.1023285376007356 0.1132378891004179)
(3.569662674316375 0.2829617536441392 -0.01462647649297419)
(4.845163508354128 -0.1592842899665572 -0.02642647043800901)
(4.052890411976742 -0.1495211280039736 -0.08141576879887182)
(4.968807394920275 -0.05421346739101044 -0.1233018146642099)
(3.644116132927847 -0.1739972408451461 0.03074010787110236)
(4.983352615748778 -0.05348574694634119 -0.06579691123065044)
(4.980005196979804 -0.03569589299459655 0.03430633027055155)
(5.105742240218 -0.01939209638898049 0.02700096149926443)
(3.825146245472309 -0.3403169349564462 0.02410275255505403)
(3.664168142958615 -0.5224941074821413 -0.3631843950532752)
(5.096746886653786 -0.06177782947957602 0.1010484792203246)
(4.997589426030675 0.1325009309327212 -0.08277968034441739)
(4.252321623840924 0.4683279420105331 -0.2509464566233706)
(3.033330755805162 -0.3225559533215643 -0.009180653313757866)
(5.077090642018853 -0.08993032206009054 -0.006933014541752116)
(5.082626774624165 -0.0322064776900309 -0.04486095068652014)
(4.802145434220844 0.08749369218366516 0.03607874629672448)
(5.083318252912781 -0.06695680292883034 -0.1138835317627785)
(5.011314640344614 -0.001242767882284804 -0.01841350423931067)
(5.131271028946945 -0.1104295900606924 0.09728183768019083)
(4.886764599131702 0.3558603287136822 -0.2633281599644408)
(5.078289372845041 -0.02503209369238803 -0.1046157787220962)
(4.923356480170057 0.004066151289490342 -0.344696512302952)
(4.294250109038086 -0.1558573029607448 0.08489592201816282)
(4.988812629011851 0.091255284209264 0.01505357402682269)
(5.036520722206062 -0.01242415010702998 0.007294721927996304)
(5.007182544790399 -0.002737114076240372 -0.003507960789851055)
(5.028330336023429 -0.07678580138413765 0.4840597315204036)
(4.909287339288121 -0.1171895212455567 0.1631397409640444)
(4.238883733425221 -0.2045958168052406 -0.2743485224527006)
(4.655341769015712 -0.22570817060015 0.09071615495252346)
(3.206520142724473 -0.4134970693385174 -0.223902786674438)
(4.27520554990358 -0.2666517957459683 0.06616534631895141)
(4.792145118626885 0.4910141151791912 0.1077939416727997)
(4.893806431058782 -0.06243616364690409 -0.004804027149244514)
(4.93822709902821 -0.1827376005018164 -0.1252332890939142)
(4.651365029458019 -0.06981918303557823 -0.1782117323237904)
(5.055495267617962 -0.02002324020937658 0.06867916847079945)
(2.226656904452866 0.4535505588445307 0.1588203692470843)
(5.002801999304388 0.005723486193663552 -0.009060223804454787)
(4.970746527059009 0.006973490411222641 -0.002965869240464628)
(5.002071794840741 -0.01927923476762622 0.004180716217496125)
(4.978259324401207 0.008902343258095748 -0.0150059138096088)
(3.110680810654835 0.2118334262656223 0.03770240580705501)
(4.748638635735932 0.2045283984913124 -0.1849790017688531)
(5.08269431016797 -0.05848229474639997 0.03088084371831936)
(5.045158155839258 -0.003074979544008083 0.0188829098266199)
(4.997890815464402 -0.06506408592431383 0.1126845419209747)
(4.97745954016868 -0.009038750154821419 -0.01352628576798206)
(4.97939953439445 -0.008990706427839102 -0.004391949539581052)
(4.010040408023313 -0.1323931183181662 -0.03361877337378736)
(4.999811407641089 -0.002318961044325455 0.007523142629403723)
(4.926634918560548 -0.1532886866418475 -0.3886525989260783)
(1.426445738976894 -0.09623440301284175 0.00549607659320176)
(5.099905857840056 -0.1114898464612963 -0.1900878901429141)
(4.84703507116151 0.05373636293051048 0.0598400712342118)
(4.016382552717728 -0.1144697951790309 -0.0690787602293548)
(3.993732946012731 -0.1146061846177813 -0.0244655078461348)
(5.080860009666738 -0.1830645326730288 -0.07494774673986618)
(3.379785867750394 -0.7349617414665902 0.1125631358402527)
(5.129706235565001 -0.1176750089885756 -0.1089502485059648)
(5.05676137687138 -0.1367473172855209 -0.1679146921941507)
(4.989457835610617 0.08140549908699601 0.1153814961880415)
(5.045450871777446 -0.03416449708462427 -0.04540292426884467)
(5.008104266232003 0.03133374836283845 0.08369339229574421)
(4.998563627841492 0.05344233724629988 0.06280725019325653)
(4.015958205557972 0.008144765227261017 -0.1681581667994346)
(5.015261810881819 0.04317692791488638 0.04762085594781001)
(3.523162703672723 -0.1860041136777018 -0.2328613451616257)
(4.276616172432458 -0.0525086316214597 -0.1978040893470449)
(5.000626781970654 -0.01844688435618433 -0.01257308945227616)
(5.073356834548397 -0.05116322866043201 0.03745824445729581)
(5.035689237709631 -0.009596260584767077 0.03880940925559002)
(4.854244479181877 0.006530257588635183 -0.236287291407645)
(5.063551381980049 -0.04046491729727281 -0.01952825841092122)
(2.869693757347226 -0.1637831590651177 -0.00900895324133669)
(4.672474088859689 0.2340914816863859 0.07449692036951887)
(3.998251661817546 0.05310792531421359 -0.1101064632583237)
(5.020056757107024 -0.02942094560239658 0.04173811780026367)
(4.9264849091826 0.1394401782559078 0.291878739732587)
(5.0717385761622 -0.07725625906521595 0.04049481883882917)
(5.080729429384329 0.07567375326637077 -0.01310800221597052)
(5.080250023895252 -0.0829905832942706 -0.03736768472897915)
(4.89644373045201 -0.2405957759957319 0.1133756988789462)
(3.602323359385999 -0.2023312289111207 0.00965276032979376)
(4.075462983070121 -0.03756743329682711 0.2565090343134077)
(5.068033753925321 -0.04161160825250913 0.03950368699344932)
(4.058615128815273 -0.08010409137420994 -0.07178764318761786)
(5.057461464808983 -0.007904286567867413 0.08076324656611614)
(3.838858607026744 0.350871697201733 0.06399352325609484)
(5.147431393466824 -0.33395300128629 0.2267051798769839)
(4.92057923042851 0.08341983827906951 -0.2822694165396311)
(5.088702250337657 -0.0655095828034391 0.0004389048825778045)
(3.026452040000054 -0.1321564973380733 -0.08184808629857908)
(4.98752633274244 0.1379438080350452 -0.1837570585303898)
(5.010704970274466 0.05009493931651602 -0.04399838429055499)
(4.949202772471249 0.2042412597163616 0.003742092925474024)
(5.064193826415407 -0.04633055275706869 0.02948076446800937)
(3.512301813367492 -0.2461555409291686 0.01740545254461561)
(4.905330017061052 -0.03570024891669973 -0.03089526129543007)
(5.055571935452242 -0.05811287275383822 0.01916726552439619)
(4.871870872972892 -0.06300034835422309 -0.0260588362552909)
(5.00104866535483 -0.01514145262473533 0.01298625995756283)
(5.00399105462787 -0.004345760172396953 0.01469829361007986)
(5.107039016683834 -0.006776682749268185 -0.06608627658878415)
(5.000868174012342 0.005331844512750999 0.1257495970304258)
(5.121411103230865 -0.02295546597919723 -0.03105529577926509)
(4.997474129489376 0.01469736592919605 -0.002656316583683609)
(4.885594461886349 0.04118685179688029 -0.2517780917015262)
(5.031170473977669 0.001369435156754075 0.01612795026734698)
(5.089778143503614 -0.055987688179557 0.001822927110270306)
(5.018862419718143 -0.03908073846195918 0.05166031550028722)
(3.618908791887504 -0.1741341245296771 0.06751001336170659)
(5.023040095050976 0.02190800489480668 0.02214172639490849)
(4.998796135989688 -0.007849900646988062 0.02590001968257528)
(5.010423637760013 0.01505964287205293 0.001542875334857429)
(4.594046159212623 -0.3293994706114245 0.2960133077071657)
(5.119230212858949 -0.374525735071177 0.1846193159549989)
(4.883224637015287 0.1072203193965685 -0.02214483005825143)
(5.038154677738938 -0.1150011350162452 -0.2294603018995838)
(4.890319799712146 0.04037681000054675 0.006717272342177695)
(4.499264096345559 -0.0269966921763931 0.1390561733869044)
(4.742445100914017 -0.09166298637734606 0.09963226644317215)
(4.998834591564441 0.004128509202259929 -0.008490561863384273)
(2.505385411529401 -0.3198752363049975 -0.1276357911454365)
(2.67853576765521 -0.3989326549060118 -0.3287599836408194)
(5.078624085872103 -0.08697917573157243 0.109336467826575)
(5.005445333212333 3.487846556495959e-05 -0.005066355512125678)
(5.013103798730365 0.00473163893764595 -0.00243826951925638)
(4.753117143165452 -0.1806714710320078 -0.1993681262294305)
(4.963300565108918 -0.03835141561917246 0.03615888252864982)
(5.017057765695496 -0.1429508510143199 0.1887511516532938)
(1.889177679719017 -0.03831358699530775 -0.007454181653718929)
(5.034869081643711 -0.07167410152275426 -0.1946252957833184)
(5.086635307415126 -0.2272797282402644 -0.0114220444507512)
(2.619476992918436 -0.4240599738306065 -0.1414990015757995)
(3.941455210527769 0.1974774240026907 -0.4513959556217383)
(1.816297858997242 0.1597298884105564 -0.1671046772219336)
(4.314392688365608 0.2872494559398156 -0.1631199415320646)
(4.73500847826828 0.7050930835394994 -0.04012058563098719)
(2.553798418221831 -0.03688853520684317 -0.1588469870260914)
(5.038195890167643 -0.2304655481130483 -0.2517757343026882)
(1.861001300808824 -0.188915159121096 -0.1465628984164048)
(4.653061994681282 -0.4561297027154341 0.03655055599671015)
(4.997335395815974 0.09677818183380744 0.002608222365628939)
(5.079921519397704 -0.06528648030308769 0.0582093385570141)
(5.1289148635205 -0.07518776268767517 -0.05066597059694327)
(5.119044434543031 0.03731726767310296 0.01940709146417828)
(4.13207674347701 -0.07997197872774697 -0.1051455189690404)
(5.095091243647307 0.003076734203997201 0.1269403663476806)
(3.37863659381405 -0.08789911425552922 0.1727007802656635)
(4.383023513117888 -0.1121575329800767 -0.1191489321594131)
(5.005168347294197 0.03665587694001024 -0.0465910079789817)
(5.015478707977863 -0.02121897827581255 0.02653696256576853)
(4.931470387158909 0.08961843991096567 -0.0534632763787519)
(4.890958761873028 -0.1570495123647366 0.5152544041840841)
(4.943866096548629 0.06110431364190111 0.1374575138953862)
(5.070067732836611 -0.01086458838137428 -0.02253499084088662)
(5.110787344349256 -0.06340856659385675 0.04933607194910078)
(4.861332596636623 0.06403944009628457 0.04094921348962399)
(5.038415775545993 0.0107105439776227 -0.03648607519122549)
(5.050178770924274 -0.03529345316483688 0.01042903708962913)
(4.957898777588177 -0.04205564674203355 0.09013607662577827)
(3.567527854431182 -0.1547986291103221 0.4171805697062451)
(4.02082329414345 -0.1587462626846669 0.576958595960573)
(5.046178124870053 -0.03524688759257644 -0.03499060570117046)
(5.023293480815957 -0.2019946192061965 -0.03874618110888942)
(2.232895912823586 0.5229238898189513 -0.4809403952203826)
(5.002468076099705 -0.0009511484131902668 0.003493919530978557)
(2.881237320525494 0.247079601991154 0.3816234327181282)
(4.011146153459198 0.09457913936998744 0.2691622923678124)
(3.33737091850147 0.1936779870558647 -0.1062150487403221)
(4.998712572661969 0.004077138542930583 0.006812003456021922)
(5.070568439485694 -0.115096111851257 -0.1776215747960636)
(4.930404628604949 0.693293612829683 -0.1006542204635163)
(5.035251784888136 -0.1796163100439444 0.2289369426922594)
(4.996153019126089 0.008023728294476793 -0.002162303826691994)
(3.317878478131827 0.1949222172395133 0.2273448995458025)
(5.003580381030905 -0.0002964424019802495 0.005978348071380228)
(2.910205599106361 0.262125513133638 -0.2741704534725294)
(2.40603076984615 0.3616362037363664 -0.3419973550467744)
(5.056039865935601 -0.04929793006971953 -0.003628831596848845)
(5.036462704824717 -0.1079810796147355 0.1177408332852845)
(4.906536965894088 0.01341472990382112 0.01645972673833628)
(2.447075865980995 -0.1457530727682237 -0.03490150569538861)
(3.044829024694683 -0.1405802368865678 -0.07395419536386817)
(4.998134490690949 0.0007392153103217506 -0.001675078393363125)
(5.001071071392202 0.001303602705431388 -0.001399027876811347)
(5.011216882066275 -0.03832898303436542 0.01624271627004539)
(4.969368640812911 -0.04025527368132856 0.02270176632270635)
(5.082047205400575 -0.05704938296199368 0.05101471234301314)
(4.999413851305479 0.01681590323721353 0.01799559185175158)
(4.79046574262489 -0.009525430862110121 0.08503485979705096)
(5.010384169370558 0.01293646768718691 0.0354437314211858)
(4.546763175411459 -0.1333147093638669 -0.4713335329964456)
(4.997372576082751 -0.03608180634410848 -0.03760875156263768)
(4.935250602118304 -0.2356794347454295 -0.1071783524923666)
(5.067043307017349 -0.04320661491099146 -0.01921890775426798)
(4.657464458570434 -0.1032096654069248 -0.1625465155569782)
(4.505408065020765 0.1612423761561336 -0.07556661326008389)
(4.940317668871673 0.01580234859048026 0.007417769231443733)
(3.904589955745718 0.1439098714234164 0.04242691376246022)
(3.752859980763375 0.03798528474615839 0.2344921140216913)
(5.076269885297954 0.04344972983724751 0.1160186788472988)
(4.987110632386892 -0.0267696473490404 0.01181365290183137)
(5.012379310173604 0.0006472662597183626 0.006336824349832672)
(3.343262623665498 -0.3110514856848685 -0.2825640550601177)
(5.138906840574266 -0.05388910417234751 -0.01546187880383689)
(5.018901195031166 -0.03951418526297693 -0.0684629231917875)
(4.187981865866827 -0.1585477537759722 0.02157333752113766)
(3.685187877907513 -0.08758193588281284 -0.2543779562862983)
(4.835066325051433 0.01630681352027747 0.266875316850111)
(4.782675289260219 0.04942591963686151 -0.2439477872552262)
(4.409965701156108 0.1826032966359042 -0.008401756118742183)