/*--------------------------------*- C++ -*----------------------------------*\
| =========                 |                                                 |
| \\      /  F ield         | OpenFOAM: The Open Source CFD Toolbox           |
|  \\    /   O peration     | Version:  v1906                                 |
|   \\  /    A nd           | Web:      www.OpenFOAM.com                      |
|    \\/     M anipulation  |                                                 |
\*---------------------------------------------------------------------------*/
FoamFile
{
    version     2.0;
    format      ascii;
    class       volVectorField;
    location    "1.4";
    object      vorticity;
}
// * * * * * * * * * * * * * * * * * * * * * * * * * * * * * * * * * * * * * //

dimensions      [0 0 -1 0 0 0 0];


internalField   nonuniform List<vector> 
19631
(
(0.005376831747429242 -0.0004356992744032395 0.001057116292446953)
(-0.9071463809326823 0.6761580377191703 -0.6517802257711823)
(-4.082174006033452 -0.09632562539790734 -2.896087372854408)
(-2.213406363337064 -9.442283379799303 1.846152377829582)
(-0.01177509275962488 0.02343945954256442 -0.01959582164289439)
(-0.1775811849923964 0.08234587515220765 0.05767916669207895)
(0.01653473193412112 -0.02365016428028409 -0.008087732904745917)
(-0.259315021570229 -0.267991792641921 -5.592522099344175)
(-0.01730756943808693 -0.00805601801120908 -0.03713215547944186)
(-0.0117894827541751 -0.006348843728491592 -0.02667254168479615)
(0.06865273417140225 0.04360671842429063 -0.06549896646577893)
(-0.03170684979762846 0.03902839128478774 -0.01071706296987827)
(7.566324643690195 14.56861526471003 3.952132453356124)
(0.04258730187477158 0.01041052149559417 0.01351604442629906)
(0.002352941739347255 -0.002104650382490329 -0.0005191704727181794)
(0.0605829786131489 -0.05881148625713314 -0.04333428512669544)
(0.7894797084536868 1.243356873228295 -1.269983287336114)
(0.008310227592689052 0.004725180126991408 -0.0003944903944951872)
(0.01109428267059868 0.001278194503961392 0.008423006848641274)
(-0.3687411373076782 -1.446570703229835 -0.7883004400729692)
(0.01020961805186607 -2.904678552858447e-05 0.005466213950145027)
(0.03063399731514085 0.235222503053959 -0.09451770467874573)
(0.0154438738363269 -0.008767624141039765 0.126763099396259)
(0.9473980527080381 0.4887195155184544 -0.5285631262386419)
(-0.01857561790893982 0.01620315616285914 -0.005982408838439413)
(-0.009095720763936645 -0.007704895120825497 0.009305628110757956)
(0.065344586535185 -0.1270428457028573 -0.005583094905352307)
(0.03731763596542144 -0.1408448395468891 -6.1872554893397)
(-2.723052158471471 5.343405621719841 -12.90168794934572)
(-0.004787902467719538 -0.008150790649760344 -0.1331452847025494)
(0.004918737777359555 0.001507839300189359 -0.008531323817961997)
(-0.877699040018554 -0.5531777251410487 0.4679961214130477)
(-2.619228720934121 -0.4374443213266083 1.24078914148093)
(-0.08359659572105485 0.01047784909125855 -0.00800149773053601)
(-0.3133776651922122 -2.524167115266507 0.4840495689557329)
(-0.01321606002868873 0.02028319186984111 -0.01684937361044563)
(0.007573365166636856 0.04916569134723165 -0.05356979137063891)
(0.05979396581840993 0.01962106813248199 0.01732082799715871)
(0.1726884466741828 0.575355590437057 0.1963409320393707)
(0.09925720217491492 0.198859555081654 -0.1220422123574377)
(0.1698554599458499 -0.007317820492834581 0.233212765506879)
(2.384146570555223 3.513706375354407 4.343652980331923)
(0.02135896929515826 -0.009564108483303748 0.04537044459194089)
(-1.503107734026323 1.268753455615911 -5.483505288814114)
(0.5194547632856688 -0.2345961916106037 -1.116887232693959)
(-0.6368970369700184 0.4330390085070691 2.035973652429843)
(-1.407935355008693 -1.481699326743453 0.235152771053603)
(-5.884899252860486 -1.486520270686343 -1.198613007097292)
(0.02175125014207153 0.01016099082454047 -0.007770291218729286)
(-0.05713170920695909 -0.03030541750688173 0.05119697532939967)
(-0.0156730633932158 -0.003575502916152686 -0.03058912778775857)
(-0.022455414616498 -0.03177711647130946 0.01108811573476755)
(-0.3697099900564336 1.915626559665907 0.07271718638692493)
(-0.1176751765675532 -0.01643848408178828 -0.07490273264268119)
(-0.01179940051867439 -0.3107852937817335 0.0742413548214626)
(0.593352935795632 0.7340827164124837 -0.87470848219771)
(0.1046125614694557 1.255820261816314 -0.1287556119285345)
(-0.01054036788782426 0.01247085229524638 -0.01000332585354693)
(0.1143517062952878 0.04805872366895939 -0.002787600338491299)
(0.8629894408356312 -3.206381611324839 2.45255337756616)
(13.2273465240322 -0.5160869714015499 -10.1484895988112)
(-0.6895184198875007 0.7162221692092141 -1.822295705511376)
(0.78927269039764 -4.270171284412255 -0.6103274753377457)
(-0.05545177914481358 -0.1668433531295673 -0.1946757214493934)
(-0.4527899393643771 11.94444601575371 -7.44758806692966)
(0.3927772795464022 0.9852731930393483 0.9825095411762982)
(0.09262359382489668 0.002070407219256325 -0.02637984572573219)
(-0.04121952141622525 0.1575881722433709 -4.751141399521103)
(-0.5647475027266315 -3.5033003122904 -1.750463979843288)
(0.01785202618273155 0.09559636860653774 0.005044381676601994)
(0.9369850873537111 7.29845286991676 -2.570661665506423)
(0.1001278513237355 -0.1162591253201934 0.06036602648920065)
(-0.05812344192045649 -0.03058155916048104 -0.001862793757696053)
(-1.188991653372763 6.131398034527666 -0.7371966463571981)
(-0.1487064700258529 0.0115836931534937 0.03891931781584317)
(1.24995384249248 -0.2053600935645636 -1.004109489687806)
(0.06530179288184222 -0.005662346129253228 0.007083050677380427)
(2.973084147860438 0.5123779405637621 1.809773305249594)
(10.6163502048117 -18.01910915239659 -2.392406171186298)
(0.03840047583889881 -0.07709041629564026 -0.02075584086074874)
(-3.393260882202813 -34.79525775028191 -2.526011942888605)
(-0.2779019756745053 -0.803816633658373 -1.411935165273087)
(0.641431306760555 10.0243113809842 -0.6588773548963126)
(2.581152058325842 -0.1289758786788664 5.677634323251716)
(-0.2171576360286095 -0.09966260487894008 0.1705664361619325)
(0.1483796603933307 0.01748189393042967 0.146326087046577)
(-0.01826809743004305 0.1558021546776693 0.1234093293811529)
(-2.528265917386584 -1.135431642189795 3.601553310379866)
(0.2114789352971673 -2.728164028447485 -1.3305815105075)
(1.49614822650758 -4.371958535435229 -4.817462058045257)
(0.05571103172383958 0.1958203438737832 -0.1745834048795668)
(0.3457808680282295 3.429865463848655 0.2107626228285434)
(1.030681116233682 -0.3106444953785827 0.2223878192463706)
(-0.1476863665773021 -0.3220968669237669 -0.5994551384536967)
(-0.210147355045996 -0.1890568945551623 -0.03158877852078981)
(0.2255905538273269 0.7563525973142089 -0.01441280144576286)
(-2.092175318090033 0.1305482672397429 -1.921097146941579)
(0.1209378653770544 -0.09826273885371462 0.2636914155722836)
(-0.4366966889567777 -0.2895271871239005 -0.3321712735426549)
(-0.4171251735750181 -0.01714387181953824 -0.1028867221031054)
(0.0330858956407976 -0.00308107124622385 -0.000509975939965712)
(-0.02520120669879622 61.37358979364638 11.84415673892758)
(0.01707860392941575 -0.005441671427589924 0.02819850384905493)
(3.768107018980085 41.98278182752762 -9.9012562463741)
(-1.132326620378734 -0.7074664934822361 0.1171479882070685)
(-0.3750717981506955 0.7839296414135799 -0.3283591542314416)
(0.1626523517506949 0.004418246110515439 -0.04809387537768076)
(-4.009609325414594 -5.197572992952062 3.126543209969878)
(-0.03364545985875456 0.009071964258818871 -0.0008777225957369619)
(-0.004480729729615751 -0.0350183950248123 -4.554751003188414)
(-0.0934642986768973 0.06949196864242813 0.08606167251026817)
(0.4348949521231695 10.09651622340354 0.7409182568220973)
(-0.00166023596292029 -0.0194871226126836 -0.007643749723105541)
(-0.6849836268650494 30.08654437933204 0.7119325227426334)
(0.9086956022855988 2.507434896368045 -1.927554465676193)
(0.6055040786083012 0.7480033773404424 0.07105385583089607)
(-8.938146092718247 8.994432562732179 -1.784070276515468)
(0.09541823301536567 -0.04136215701337879 -0.05889276618600423)
(-8.195741928759787 9.613171309816083 -5.647488050858442)
(-0.008690191054317353 -0.003124356211601276 -0.005073611799551632)
(0.2426553928216313 0.03935425073062294 -0.03206050333017816)
(0.1522632478611954 0.05022548841188381 0.04251475995226414)
(-0.008660508933646246 0.008618488358492734 -0.001430120929994024)
(-0.1727857682504651 0.2363729925337711 -0.1969927541907388)
(1.864228215540902 0.7251416303090437 -2.923515134348181)
(-0.01360110205862152 -0.004006003646701866 0.02177920186126564)
(0.05131450016386396 -0.005342029452378511 -5.394512834728249)
(0.007713124645766589 0.03504303984420255 0.003382687022812039)
(-0.01523734584635871 -0.007676055655173262 0.01124900393850664)
(0.106837899871288 -0.005562093338458102 -0.02176859251077697)
(0.1821980945197981 0.08161628163648305 -0.05651069338117543)
(1.27122047579638 1.652859055249141 -0.03780260119047907)
(-4.363201865667136 -37.28838123390376 4.99979851388169)
(0.2801529172212427 -0.552790847980309 2.447519437286418)
(0.001069201757080619 -0.00339315247179303 -0.006240140051919342)
(-0.05832300941432127 0.03745966416412904 0.02042510216085396)
(-0.2130769303093165 0.001063063121160857 0.06257111827464185)
(-0.2674664832095109 -0.2364481174388423 0.249170511045305)
(-0.5003558889261956 -0.0877622286382167 0.1620659216390106)
(0.1541257390467075 0.11508358814834 0.00183156182967175)
(0.02547298621298095 -0.2438529494852147 -0.24384848372121)
(-0.07164370748141766 1.423162873230357 -10.09976471004474)
(-0.6949671926108054 -0.2211519898460924 0.04604757491385639)
(-0.1150932333978792 0.1398064253360375 0.09322541382446119)
(-8.398322422985618e-06 -0.1243080167486069 -0.1625910151975542)
(0.2099120570072485 0.2014625271693586 -0.1177381532776176)
(0.02329228713676216 0.05907619642987429 -0.08956144858885398)
(0.06832282586558959 0.01549378144555643 -0.03953854672520628)
(0.1315489287642279 -3.670222995656856 0.5357130219419977)
(-1.969358583580815 -4.295695964104642 1.205022806807192)
(0.008311504869665613 0.002716312248730933 -0.003553469387602354)
(-0.02182515289441968 -0.01871067024748074 0.05844971312166371)
(0.04272149332463971 0.001673948089930759 0.03059870400757828)
(-0.02915061165605113 -0.1151249128744207 -0.00747315183799729)
(0.01377580247853032 0.006911931364559137 -0.005015709011668102)
(-0.09663099644488944 0.01364876926696938 -0.1574525976249492)
(5.618813343570116 1.032509795830591 -28.51783768426822)
(0.2339191423243621 0.176049350171284 0.007468524355572714)
(-0.05717909964987955 0.1480232066826283 -0.1899279972550126)
(0.02519375754791018 0.02280684609463881 -0.05379424397530187)
(-0.004003829343099346 -0.0143915037885909 -0.005175716919336942)
(-0.02654870121564347 -0.1047515940909486 -0.04897754223613099)
(-0.9205496575264972 11.20192195520008 2.270627965206116)
(-0.04439839161737422 -0.1026651716820639 -0.06094656543918643)
(0.01148187972407077 0.002719510208505273 -0.01705514941730766)
(0.0158956381900549 0.008227264339574231 -0.003697543363524811)
(0.01623960043464653 -0.0009659143291412368 0.009322543005603104)
(0.0455670938386648 0.007812518905300384 -0.017944553926488)
(0.01057388106700055 -0.009059794173284298 -4.212731772525529)
(-0.8433511532634081 -1.886207866997649 4.605488137194931)
(-0.2051697110543998 -0.06421973347401898 -0.3995848628613888)
(-0.1744127943692892 0.529702455204516 -0.9067837623859122)
(0.5198651875184356 -0.1769285669466417 -0.6140882704833884)
(-0.4440747353621599 0.5791456860671156 -0.4420774092907119)
(0.05244898273693885 -0.09627738747836978 -0.1002444579210666)
(0.2281054101255377 0.3146635890681508 -13.00602380573708)
(-0.04068748929316002 0.05700080462273754 0.02119230668256776)
(3.453069589960561 -4.328469918675576 -8.565102088299732)
(0.01320311858851435 0.0170665166926947 0.01454456537411949)
(0.4767483986860809 2.748123262107661 -0.9559481405432887)
(2.331042289366524 1.430568496410307 -0.1737332475123581)
(0.001868091572381403 -0.007605825537469634 0.005654929017154682)
(-0.03479043952873991 -0.3217201506577949 0.02885872276789797)
(0.04438116772749451 -0.1294822188646112 0.06609581636712615)
(-6.331030839743279 -35.77836201968538 0.1505576026535536)
(-0.6420736543443218 -23.26958385234114 2.036393031579204)
(-0.2997744131213593 2.833754141522947 0.2054042833034838)
(-0.006504692876135554 -0.02106270625343502 0.0003782648344950353)
(-0.05618853939712687 -2.305460164926921 -1.307488632009778)
(-0.01480552029498154 -0.005448977157139011 0.007678295633321267)
(-1.868327508984821 -24.31492902138985 -4.563750568259455)
(0.6459954336878608 0.07402923661771006 0.1949328897381325)
(-0.1469195903308933 0.2987483324212407 -0.3931758750915545)
(0.1912862220529051 0.03081225146234814 0.006089063456820219)
(-2.712239358628229 -11.70908643712896 -2.70816917261107)
(-0.1529559135953015 -0.6943016909338772 -0.5950063620031856)
(0.01442607481476688 -0.007501405143732383 0.008363235182559582)
(0.4342542007847589 -1.707004445573086 -0.8787606054017433)
(9.189628978563142 36.54185922640593 -5.868610723383625)
(6.52332413017495 4.607464372333718 1.028594647512772)
(0.1268148735665527 -0.09508463047343263 0.1331465557307084)
(0.2712903747431967 0.5138435510523953 -0.5838340568406208)
(-0.08237024435958984 46.29722371145922 3.927181728740737)
(-7.51036787715599 9.346238260967676 0.07439203269420358)
(-0.03615274427350705 0.02430108236580687 -0.01163577365133812)
(-0.01679009605347942 0.003096485990065616 -0.01124348676131863)
(-0.04228527883219813 -0.02591929282650638 -0.0442780275076702)
(4.707667654899095 5.584974129914969 3.056342759661782)
(-0.07028351244595854 0.09028524174451147 0.07599405593585315)
(0.0212033478234888 0.0006911746664470322 0.03845525993200488)
(0.04494541921959399 0.04777894288781215 -0.0363770706191114)
(0.06260770029235654 0.1998570479886122 0.1854396225654213)
(0.0166932764105779 -0.5448245597399293 -0.4285925249607318)
(-0.02837558337975117 0.1070930083057062 -0.06376397173305751)
(-0.003444354291975635 0.02350191442710398 0.004919507307816595)
(7.002510132524392 -66.0266756953942 -5.481472369287435)
(-0.222849414042891 0.9993722981256565 1.929660119808847)
(-1.046281452684348 -3.709426310358621 -0.9704068005947173)
(0.02570327610501549 0.05529668786988966 -0.00625754884053905)
(0.1916740313890185 -0.8766295369055233 -0.2963293789186163)
(-0.003088276153795733 0.002051895308912169 0.0009927805189657672)
(0.07318356982113353 -1.813280131357444 0.7517328617026794)
(-0.007619701196936524 0.1977919897278717 -0.5265711636956235)
(-2.821893322259195 -0.9122206007466442 -1.834504508502075)
(-0.04456484476438938 0.2044228323027258 -5.660946660922848)
(-0.6080741713997384 10.84046162723862 12.64854238033165)
(-0.05106338793582938 -0.02435588568193349 0.09762640081630899)
(0.05153914272936529 0.02863365629284443 -0.05014236776272558)
(-4.424475128912134 -1.887794535582112 -3.252062682514716)
(5.777950093138115 1.479194028216108 0.6359012038138943)
(0.7975675751676267 -2.342372632960082 0.2874463182556497)
(-0.1344579271048235 -0.9767301146176064 1.247685094116297)
(-1.12445845600684 -27.48727594326354 0.04449699798791901)
(-0.6725229820625801 53.12681930315148 3.003184363400735)
(-0.01027924463251318 0.1059307791490057 -5.920495681957528)
(-0.1831401365284032 0.06783618873405425 0.004816689888763694)
(0.03457591899385015 0.2060522922797632 0.0571207639175591)
(-0.1041826341680012 0.1221236353546333 0.01009576358076501)
(-1.660182051177658 2.177798295812746 -5.954192995590656)
(-0.08814444733834292 -0.04123617012180673 0.06219406164644242)
(-0.02153035241658669 -0.006225645782987125 0.002464523552490325)
(0.08812614549161224 -0.02090622456180789 0.005708687953817571)
(0.009057728982151514 0.3230973989839112 0.8017416725459944)
(-0.0005466457893424615 -0.007127386097241483 -0.00811964578581954)
(4.297963785242819 31.31319146960855 -1.559997357200082)
(-0.8647520617377696 5.708247980750489 0.8309053418544992)
(-0.0004625963764201876 0.001918938740270715 0.01080082006367575)
(0.1295646676146357 0.1192445358088576 -0.0877689442181708)
(1.225525505548019 -8.983331267662741 -1.668325418949311)
(2.95657029758 16.07544441645865 -3.539618929755947)
(2.725202690524887 12.36401974328158 0.1313322181614973)
(2.267988108451642 -36.7525537560085 -1.910477756792374)
(1.155058425295338 1.501089880303125 0.04905084697920156)
(5.47624486516245 -2.387433115883946 1.097622853038331)
(0.7993412293686973 27.92614130193074 1.288564263805158)
(3.470491289276219 2.159766725280154 1.678046721599454)
(-0.1937073554514963 0.05337206496444413 0.1351782055527564)
(-2.025131219233677 -8.463085656704054 -0.3238780983030179)
(0.009871403379365186 0.08323266884439048 -0.02174983085205082)
(1.095365521295321 0.725124371348127 -2.599330938663817)
(0.4430514616115528 1.863608585055761 -0.05051563749011921)
(0.3400256926864618 0.5426477517427637 0.07844697762486896)
(-0.1253821494789786 -0.1951618237838614 -0.0832343105649027)
(0.3955645245020734 0.1090964128606949 0.02830621008306577)
(0.3127938672563781 0.06762839831847577 -0.332892423491761)
(-2.601790295120893 -2.200661981129448 -3.678142201429715)
(0.8284520206075553 -2.926807528230027 -1.356750064969818)
(0.798194579892529 -10.45358175422448 -0.6397994102233168)
(-1.056782231193298 14.19910806137313 -7.599084312705924)
(0.4272203804624762 0.6084645652032801 0.07166211994516278)
(-2.05730039907905 5.32795627510102 -0.2408306047345978)
(0.4085576277250126 -0.8364824669355183 -0.2256167528059786)
(-0.7097264345085101 -7.027872313793207 1.315965991610126)
(-0.0008047751002012902 0.03663250023905903 -0.02070325162052579)
(0.01855540153040647 -0.01726379517878391 -0.02171065545696589)
(0.06372761106845094 0.1647788845670133 -0.04386809982294609)
(1.338974509227945 -1.132897468952349 1.429947691905511)
(-2.091149707010169 -13.17550036552017 5.713233476290172)
(0.0197573968304969 -0.1176683362397978 0.03811804347249244)
(0.3578054063113896 -0.5220641371727721 -0.2509420284961889)
(59.84666933722173 -58.71250652143199 -1.797059161032224)
(-1.347240824251841 -6.107673817239844 10.61295122461792)
(0.03755158090716182 -0.3297533939753289 -0.1618133191784505)
(-0.3844447580118859 0.1760148278354041 0.845529768230875)
(6.337415791660522 -2.145394829555752 0.1601478264524898)
(0.04099218042248595 -0.3658607849733353 -0.03947330079012074)
(0.001896179206061645 0.004091411372054128 -0.01619308371764519)
(0.1133068047535892 -0.07581848277822176 -0.1140768190777331)
(-0.188570209870042 -1.386276929511512 -2.443445476210215)
(0.003748294646405088 -0.01548717719915921 0.01624625826812343)
(-0.4909801705825467 1.803443180744847 1.584180953199746)
(-1.529265913388359 5.104347005450462 -3.106453119529228)
(0.1239403187176621 -0.2209667953484072 0.2675632546640366)
(0.005493487638862325 0.002418958195662212 -0.008235452044714875)
(-0.003684835937012593 0.001387385558406903 0.007216002519605291)
(-3.433308416072937 3.973253785806137 -8.834896072670169)
(-0.6991304003190121 -2.123190458786516 -0.04088999385947262)
(0.3547511969556951 -0.642823920422771 -1.360241112028576)
(0.4105362029229812 -0.1296083814882435 2.158812112405969)
(1.159078772545313 4.717987432994732 6.990488650097818)
(4.594229262266923 6.852015652159007 0.5551575759645756)
(-2.006631530762375 -0.3719539636850011 0.2733934836490926)
(0.06256197994578531 -0.005232854025752177 -0.1370129618961071)
(-2.200974187868451 0.5788663353934498 0.3537198992474706)
(-1.257765301635462 3.122556130287416 -0.2823501244381801)
(-0.01778968027607483 0.04560921037297713 -0.000669461422783877)
(-5.133504566540301 44.66591218916695 2.100901136816063)
(0.01462778064604126 -0.08252783371691574 -0.0491522022385719)
(-0.0002368888158185735 -0.01659981822414886 -0.06667472171307037)
(-0.03989720763346649 0.05269747288965485 0.1108592463557969)
(0.02809229540475644 -0.06211042387379168 -0.01689072980187195)
(-1.405232324141979 33.78631469250213 0.1586289280273353)
(1.001762745788213 -4.930923117153491 2.666773354156378)
(0.01413484399869232 -0.01985519571950953 0.04120968070719652)
(-0.02150634660296504 -0.003326624978773559 -0.01242224174794823)
(-0.03393506371908688 -0.009406911146124936 -0.0112109044172018)
(0.001525409006678537 0.006967862244541118 -0.008849030129265717)
(-0.00482612756871858 0.004083544655388336 0.001463059156504579)
(1.839407098393024 -1.049489116579903 -3.766658559874549)
(-0.0008982696963145423 -0.0004700996656075477 0.001115162304646038)
(0.7362570322307845 1.378867371054302 1.647281094710708)
(3.856984995904225 39.59735135345683 1.140616688612124)
(-0.5972572039183814 1.086570332397965 -1.152914068784095)
(0.05521156738111542 -0.01472178571257712 0.3932352274142945)
(0.2868283558059029 1.745628856122414 -5.264770237296896)
(0.4113964830741256 -2.628826101330416 0.2824475896810396)
(0.1779309807604497 0.4191703125616318 -0.07711050654286722)
(-6.335802461770442 -0.2416365067203884 1.40663505291508)
(-0.001875814673683363 -0.01097895041136102 0.03965640529590484)
(-0.1960380824300495 0.7641512794622475 0.2352555126061927)
(0.5402578979593626 0.1565006450302454 0.2287801366093176)
(0.09856445660830696 -0.04648391687183918 -0.05699687335132677)
(0.041137177808538 0.0110246825483538 0.04780213375122275)
(-0.04676745625020749 -0.006673257402275798 0.01630011049244789)
(-0.4511926809361033 -47.26683716579134 4.766639378974245)
(-0.08515955324722559 0.005345273011134574 0.02448981840470315)
(-1.210058218246505 -44.95493500408391 1.586421506556497)
(0.9850819297348868 4.23701704603745 2.340550290274481)
(0.02392846078983249 0.006533409149685442 0.001245253447817761)
(-0.0267916426492488 -0.02442393548440656 0.01153368137007429)
(0.01571485018292976 0.0008101433850772508 -0.01515300557209906)
(-0.5736406082992441 3.505535805778126 1.66191603160895)
(0.01144660829692683 0.005129965467190752 0.009992105793374255)
(7.167030888424831 10.73976170823093 -6.367836680060874)
(-2.365140678370984 -4.227208864950069 -2.985453251904149)
(5.206744683691911 -3.480933885141978 -7.897658928408152)
(0.188654071342329 0.05521080864273273 0.02296757445513839)
(-0.3537585883610013 -0.1944088482580653 0.4771600528334091)
(0.03710906754522733 0.0576522401787001 -0.004874451202562107)
(-0.5720262988425647 -0.009628818608250829 -0.5272311523583201)
(-0.01728738215140165 0.02707722690662059 -0.01009452521171879)
(1.746604202461911 -0.1444359407293265 0.6686219228644992)
(1.162922600483195 1.375895968240308 -5.524115043727845)
(1.179235747387268 4.99114943114557 1.83976884396414)
(0.04382922651454373 -0.1008852355927766 -0.2038367344691962)
(-0.04934405901987304 6.018044600837117 0.7278080585882855)
(-0.1258232385847182 0.03171913691799241 -0.02380845636042954)
(-2.743348107412625 30.60697687097814 2.864070115812005)
(-2.440696012963426 0.2380134085719849 -0.02235019698470381)
(1.038846650821485 0.7125921982448293 -1.16306184854893)
(0.04103129930573805 0.01018743873545289 0.03653799067046622)
(0.362717360178518 11.38991932389519 -0.792715487404968)
(-0.9505669400131527 0.1251712410313262 -0.3033648196062293)
(-0.04206998336064696 -0.03702785071762163 -0.02707391851228114)
(-2.06395229683392 0.1022882200077695 -0.06347392810061604)
(0.0318680006077569 0.01635448868491028 -0.01301034696081691)
(-3.424403182910229 -3.112965029097439 -5.235028534390223)
(-0.1294472371193698 -0.03138664690132535 0.144142295654629)
(-0.006753528908372941 0.005720915574718387 -0.001888674988461748)
(-0.02786443361819801 0.7183774217255714 -1.014315734493205)
(-0.00471952647631563 -0.002957579261765084 -0.001861970979490331)
(-0.0009714900044534579 0.001134614581949539 -0.006327243781242376)
(0.7678348711804053 -0.09720408673514289 -0.2236173911061112)
(-0.510750203922498 0.2166659821428849 -0.1217041318873119)
(0.2120585740957116 0.07974968758449208 -0.05544194154456856)
(0.003907196458669439 -0.0006813071974159863 -0.01127989774515328)
(0.0591984422481382 0.4848469381344784 -1.027394666474167)
(-0.02392641810469602 0.01682363222963653 0.003090657917251524)
(-0.1437187428705819 -0.03807148473034823 -0.03012267846329774)
(0.01758096269488177 0.01394733054433158 0.004216446236320601)
(2.245336487784776 9.934828078884527 -0.1979800845733518)
(-0.02382835827553223 -0.04580897253597202 0.02934876636553517)
(0.02111033654463616 -0.005795996068557482 -0.008071478452890924)
(-0.01438951350563222 -0.01080466550777038 -0.01813753112555846)
(-1.854952261570482 -2.337038913615492 1.645089535767054)
(0.1996612962258094 0.6619115590306545 1.404040438833603)
(0.06336025895293784 0.02212557704916374 0.05769367270826495)
(-0.2060578833487798 0.1377942596335556 -6.604069613840037)
(0.09793775610885491 0.08853999555257769 -0.118729338340833)
(-2.595930777447388 -6.222907644920845 1.370827036956554)
(-1.148754260759964 -3.462255733461283 1.18515693324919)
(0.05764793511911379 0.0221330280162868 0.0122705205194898)
(-5.429123420633815 -6.224015434654958 -10.03777337710853)
(-5.161383601237568 -36.78075276738074 1.411384891481952)
(-0.00837702388959375 0.09759406317865545 0.02132920252096352)
(0.003798007657275458 -0.009306402804965043 -0.005878154236508296)
(0.003596829010061375 0.005237334632443425 -0.00906962762650255)
(0.3364706062725584 -0.8849040524740261 0.1310293974343154)
(-0.1010854069824579 0.2568279074646208 -5.622499465470319)
(-1.554901687988783 0.02229950837600692 0.152122197284924)
(1.027559299438982 -51.15769685619765 -10.00377340837446)
(-0.1273122282113481 0.4820370678212133 0.3713722117064304)
(-0.5275378369829354 -0.2972100038887896 -0.1919836084407868)
(4.372406360678295 -13.808358311295 5.418391873751476)
(-3.107378347429528 -1.661571319604432 -7.678729563522478)
(-2.244435483992761 -45.57156665925707 0.8178232771895473)
(1.004596928173511 -5.226009048143098 -2.460599762624803)
(0.4325327238777794 -0.8354786339839282 -4.83414239305587)
(-1.620719410300106 -52.15191564419801 -3.805278711012313)
(-1.445591047485964 0.513850427967547 0.2426781224398122)
(-3.249387833140465 -36.46765714914368 -4.566116965048328)
(-0.3605655839089454 -1.773843759484304 2.518900334658801)
(-0.4180443472828794 0.2490033253113831 -0.00280901760329642)
(-0.6189416257468299 0.01607481190767418 -0.5698956855742754)
(0.05926039419543909 -0.04261938433103912 -0.00216236256670739)
(0.5394332786107298 0.07311618944923745 0.3112015584864857)
(-4.057962965678832 0.6233745828522799 2.731098095101696)
(-0.08308583752305571 0.0002233876807092583 -0.04528917396957689)
(2.031421914884409 -57.60071380845765 -2.831826943343823)
(2.56251059764466 0.9028240237728133 -2.223808129117972)
(0.001728575140949595 -0.04955750957065697 0.07998388744335851)
(-0.04131819246394618 -0.00491316700749251 0.004936759348411758)
(2.314523053280042 0.4887940056907402 -0.05123441881271695)
(14.34461069930111 93.23580043756884 -2.398624496495928)
(0.6367663236666518 0.3037706107395635 0.5475737399520013)
(-0.01371363883703783 0.006933399665208725 -0.02038875793657475)
(-0.2844286346940712 0.08522612476154172 0.02072079043603702)
(2.457554043198295 0.5558280200360901 -0.6287488898955182)
(-0.07269503971757059 -0.02117890227964705 -0.005964118543888983)
(0.005665929166655427 0.01329307601185125 -0.008574553749164255)
(0.01515573046167241 -0.08465745021437103 0.06460144112627528)
(4.838597827182847 82.1796618380081 -3.551191925544241)
(4.015568719500367 -4.846635403018078 -0.7290024786103249)
(0.005359908194985325 0.02876544692186873 0.04123974852025124)
(-5.911285627989908 -0.4555348182509306 -0.7095545077998887)
(1.584754499074231 10.80542752382407 1.226119013539898)
(0.01199464478264376 0.0008866063044193521 0.0004887699083806268)
(-8.321132167513394 -15.71230062771593 -1.22553272058726)
(-2.538168856949968 -3.64662431274096 1.3276434435322)
(-0.680189191875687 0.4646076493343075 -5.343418115814353)
(-0.002437864321446185 0.001777900853830276 0.004552982224865583)
(0.3505703869701268 -0.2686788315933926 -0.05090362294264433)
(-2.512486647222524 -5.681289565255712 -1.120745449771)
(-0.581215562842784 1.385049544046405 -0.9685670639240038)
(0.008440561526281518 -0.005158538598330458 -0.007394147018428535)
(0.6218125043774126 -5.102552893628078 1.857356251096188)
(-0.004370846449541422 -0.0003841079369097973 0.004764385917060243)
(5.69110801709472 3.144901007346866 3.089165456376175)
(-1.928339756121751 2.428193252384743 -34.932534839608)
(-0.01852803000577066 0.01743718469981963 0.0001539232082533211)
(-1.63430748126213 -0.6877411313399769 -0.7919278418307918)
(0.4623038607677432 3.862218747914613 0.7820462795436773)
(-1.814522780374212 10.38740661316148 3.154462252293968)
(1.802283258013614 -5.99691240185937 1.497339321733437)
(-0.0005470537985866075 0.001843276541324898 0.002386602339671124)
(-0.0008517568180967274 -0.002548299301450545 0.0006181555758847557)
(-0.04164822371552486 0.03329678522994836 -0.006754885648676181)
(-1.119484940165371 1.39610708431223 -0.127210030520277)
(-0.01086137760154252 0.3881266046799677 -0.06007884133820277)
(0.2041583598263067 -0.07414862054680588 -0.27778520074878)
(-0.163817072189248 -0.4519033535259409 -0.0268723352620773)
(0.0004219505037308408 -0.05610578779109456 0.01978472688968978)
(-0.159152205149395 -0.05463519871791639 0.298241223126334)
(-0.003507770789228387 -0.006119608819446454 -0.003101758792003457)
(0.7346808726424101 4.560391337281695 1.658710606411554)
(-0.04696661361196202 0.03836007088411171 -0.003861373617537356)
(-0.3007801621446329 3.614113361654503 -3.198146939153426)
(-0.2507733652986436 -11.34020681197172 3.558734768776353)
(-0.01947617101341515 -0.03586392548916947 -5.939529584838342)
(-0.2050168897565158 -2.077950132766785 -0.04384593103882704)
(-1.186816171587459 56.18926157222865 6.990653898679348)
(0.08575126028144384 1.575580778775821 -0.514718124913509)
(-0.001875390939129267 0.007782404266914463 -0.003844005113780114)
(0.009841308506964339 0.01361975819012788 0.01068399832791772)
(-4.771157331754816 -52.99832336783163 0.6534492562832241)
(0.03849177602675105 -0.09049008290087274 -0.01833103754376466)
(-0.05825834035966343 0.04261911240253006 -0.08840789359198147)