/*--------------------------------*- C++ -*----------------------------------*\
| =========                 |                                                 |
| \\      /  F ield         | OpenFOAM: The Open Source CFD Toolbox           |
|  \\    /   O peration     | Version:  v1906                                 |
|   \\  /    A nd           | Web:      www.OpenFOAM.com                      |
|    \\/     M anipulation  |                                                 |
\*---------------------------------------------------------------------------*/
FoamFile
{
    version     2.0;
    format      ascii;
    class       volScalarField;
    location    "0.9";
    object      p;
}
// * * * * * * * * * * * * * * * * * * * * * * * * * * * * * * * * * * * * * //

dimensions      [0 2 -2 0 0 0 0];


internalField   nonuniform List<scalar> 
19631
(
-0.1052945771323099
0.1998396018967576
0.2170652327430319
-0.3866766013698471
-0.09859287402634757
-0.3839907866385583
0.2208358434999473
-0.8760998837941166
-0.3050489836268221
-0.01483537194510966
0.3068021773091887
-0.2772481634045329
0.09951949649955515
-0.2376929710216919
0.06454810292775341
-0.1477362021561141
-0.2390860969066575
-0.8300017179499788
0.2022250313431906
-1.243837553769268
0.008676702129688074
-0.2974557402345642
1.829375713875529
0.09907681160281247
-0.2097504021689895
-0.02786904035407611
-0.3854009177057811
-1.630980400569575
0.2892036011620827
-0.01307623193442867
-0.2546363591165892
-0.2725543695063276
-0.2381137350354316
-0.03630046664897147
3.209633669644128
3.21413604406514
0.08048771007120226
0.2236957865721106
-0.5780862138187964
0.3678420639200595
-3.234251932469151
-0.03500316382187649
0.02272757711358211
0.1156095178622166
-0.1831163088753397
0.8087542214079275
0.09327887339538142
-0.03136492560588328
-0.1188000736059039
-0.1747306196700351
-0.1216079213008203
-0.1839256962889742
-0.2173728715410704
-0.01736714833158789
-0.1803907656987352
-0.03532928961891638
-0.2876126882697511
-0.2025583806871636
-1.646120928085822
0.04675728445383913
-0.03000511922628871
-0.3610521449730578
-0.2115013797166767
-0.04390456314357323
-0.2235226984943314
-0.9406907233806355
-0.2396587302305049
-0.2772799315337131
0.2183704864135282
-0.02258461494631748
-0.001169945731208743
1.455697246168225
0.1553282065028336
-0.144480617403831
-0.3113788300865231
-0.08510725139839287
-0.01482809611659068
0.164931295766906
0.4491341696125588
-1.795692178466648
0.07180303489780038
0.02267576263325529
0.01716756649886973
-1.032351766829657
-1.12076894622798
-0.06781102176459103
-0.2372292450059334
0.0809446332258012
0.180656654909705
-0.07943069405427429
-0.4655853279204571
-0.2449698213039595
-0.2144245034209556
-0.365402176413212
-0.5440906890355216
-1.506355644141377
-0.06719492970179783
-1.022534535891899
-0.2414108410432557
-0.173643626142988
-0.1803726740741779
-0.4905577747124846
-0.05625397460425934
-0.07486741257161648
-0.6717449527899323
0.005458653580147401
-0.9302647924941519
-0.2509947425332743
-0.1701247047447221
-0.7219353605917675
1.582076637070528
0.01073620176413983
-0.4416955937823361
0.9722591790453399
-0.1328120094896086
-0.5813028835233761
-0.6497660198582916
-0.3399166930576495
-0.7158558045441612
-0.19370409841066
-0.1962957076332381
-0.3643644238279599
-0.3662405040846937
-0.4454084530142933
-0.3507029957058277
-0.1466272931877881
0.4180791175810039
-0.3345063034247713
-0.0467139819497975
0.2555619694656937
-0.1716833939756817
0.001327651159840568
-0.2149146661969748
-0.8255187876325106
-0.105258165528552
-1.679237266446884
-0.3544370110172078
-0.2300449726429376
-0.08259127163193374
-0.0595803780399133
-1.555358493721807
-0.7753219203772825
0.1866359321912935
0.04279477608672975
-0.3917753672960197
-1.236158361183171
-0.178070772705788
0.05174043515089482
0.1803534838605785
-0.001635469974803109
-0.2124478722729318
-0.206182851920182
-0.2345180357373277
-0.2764175880498882
-0.2017567754362699
-0.0789698098786434
0.1696513991365414
-0.2676348480446868
-0.2409828346327489
0.2147001768029139
-0.2076421915536975
0.1678390913294846
-0.1890303939961764
-0.319952167746322
0.06123955172942586
-0.0516742896865115
-0.3855038017541456
-0.1884703101590076
-0.4335168115742511
-0.07354891344607492
-0.4167033374699581
-0.2944467510246003
-0.2884509692080313
-0.1670662392721417
-0.216656816227179
-0.1211292057593749
0.06477843338373164
-0.2142499333506755
-0.1640493980463248
-0.7848098355394036
-0.2975487275772538
0.0802401904271635
0.09394598216302019
0.4625850073524587
-0.03385105357824995
0.0800948612947074
-0.03666138522149596
-0.3166513221979504
-0.2258792132660397
-0.2184409990217631
-0.2302124506834001
0.1758637420843531
0.08309250231108403
0.1157425190768553
-0.20836096855803
0.4706537676454206
-0.2247424741095739
0.006505122426474703
0.3717392892110007
0.2820176578492894
-0.3205240821846993
-0.3215132640155702
0.04298009818357975
-0.3814486251937708
0.05319740570779732
-0.2243737182354749
-0.251703643005784
-0.2261257913893145
0.08589257394281281
-0.3490881138655363
0.1078615179032874
-0.3459657484747761
-0.4688546510090917
-0.03447864400249443
-0.1764846475432407
0.04242509668678597
-0.02277800967449523
0.02117775912016428
-0.007103499222183458
-1.310863478953073
0.001013841600142386
1.040619555577665
0.2923244102789799
0.04568591463150368
-0.09469080227530223
0.2048744685584724
-0.05929285654280991
-0.09451042438808759
-1.361248741770696
-0.3572580454923174
0.1861957801659098
-1.379945587939625
-1.636994259926443
-0.4930647027037773
-0.6329644054630127
-0.3069896473643766
0.359441038708294
-0.5619516718748917
0.1988141408813552
-0.5684504709135486
0.3030742342286014
-0.3822770430258343
0.03799893850021151
-0.0789811753099698
0.2012366853177777
0.6314087568754142
0.1524497494866645
0.05923205790557425
-0.4418413574733165
-0.1400905975394422
-0.6387810330932443
-0.7255674880184804
0.2512700826190391
-0.5268061300144059
0.07022245478273854
1.204894919981903
-0.5268106298494303
-0.3057051294057813
-0.4767066804407715
0.3002051175722621
0.147315418276877
-0.4523867688792296
-0.7174879418659396
0.2760891691167809
-0.08849850001317817
0.0801950035278335
0.2067124335293537
-0.3436934938517612
-0.4810219790686733
-0.9983664855190906
-0.9430250443339336
0.1013671655793262
-0.1603933228738547
0.05035528141576826
-0.2014215156923967
-0.1518903596529996
0.1086081451815757
0.1927077613860898
-0.6321444324939063
0.05226407033209691
-0.4122685585323076
0.08856542144447915
-0.1363321150578416
0.7593614782978568
-0.6678020028876568
-1.737022120906814
-1.598037377334078
-0.3504665086643598
-0.2384422543596173
-0.4502051484189815
-0.5018845040113987
0.2483702198550553
0.01765334804949796
-0.7709320628894936
-0.4930104629738913
0.07965525016447185
-0.3235021538523771
0.2073450080317247
0.2506351305037771
-0.4194363276056896
-0.7675788303747899
-0.3125370485652778
-0.4615802015139978
0.8807460359139528
2.09415697265838
-0.1270572111617247
-0.3828084098867828
-0.6244765955139877
-0.1168560187427917
0.08983522352351707
-0.182980575518162
0.06842871924802105
0.02786213340826957
0.2560893488219839
0.02746965995159082
-1.034459472277377
-0.1794419529732643
-0.5151565927225961
-0.2231698309355561
0.09723622434800919
-0.3818856160304949
-0.5186328914039682
-0.4576333626609009
-0.3025177535433966
0.1577421693118669
-0.02162758247961511
0.2272182920233502
0.2209349678474077
0.008274541330546408
0.05212980091968337
-0.5045461100693869
-0.6477527868076504
0.09667136420234025
-0.2044655427440443
0.2676698545205005
-0.9191792080977865
-0.04180934185601354
-0.3818376468503925
0.4310228238831944
0.1083358398050228
1.633936159247892
-0.2982702814136354
0.1382111124174867
-1.66382641970309
-1.360050695061591
-0.01034507125115811
-0.4281489197778516
-0.2711981949683291
0.04957051851735789
-0.04174946970304723
-0.2080373381134066
0.09524408097375341
-0.5479133081451546
-0.2958747901930585
-0.110356520708488
-0.08919687873339212
-0.06451880850544291
-0.5849062293306512
0.6216470071397272
-0.537325600437048
-0.3241020085218407
-0.2229039358641404
-1.040650666721955
0.2005344767463907
-0.2681723037088552
-0.7417914002493505
0.01595386553547342
-0.3000761383081467
-0.4622035888187939
0.2846522572291597
-0.1498667789501325
-0.09691637567041035
0.0663746984317362
0.0783307359037195
-0.5581949626373905
-0.1021568854329401
-0.09020799198208866
-0.03501325308540335
0.6018359207698559
0.222261222027771
-0.3333201566670207
-0.2378587774176884
-0.1602608671786516
0.02442560183423402
0.09001963792048165
-0.8435467093049636
-1.04839069637446
-0.6270177941801164
-0.5860512419756803
0.1277731921765982
0.1974548094329494
0.1317608606986816
-0.03180818490057939
0.07842373795969441
0.2344490420992909
-0.01659900619464603
-0.07131622354854684
-0.5529762454318157
0.1432803526636711
-0.26746376981929
0.5192305795440313
-0.08171418059667876
0.707201745797728
-0.3331533540719613
-0.4515514346153819
-0.1217292468175158
-0.1281072916003379
-0.1074399194967605
0.07786741017934422
-0.06356927837637383
0.1087066870577018
-0.174374833081869
0.08958891579304772
0.3126291398458023
-0.01427983274674869
-0.01553510395349571
-0.9419861633620853
-0.223259920374276
0.02084745574514497
-0.1947001699363095
10.7549607400802
-0.01122893206525636
0.06759087066724666
-0.2823398728893291
0.03788446282768303
-0.4617321269130553
-2.520662753010922
0.3387873750680006
-0.5714967569135871
0.002532125576485169
0.02594476804770148
0.6255133355319352
-0.2193753288928219
0.1179149605426159
-1.042136205187998
0.0731556805419844
-0.08898101208977734
1.165427446933079
0.04380214355597623
-0.5770304014876738
0.9075830225022393
-0.9169455522396276
-0.2831397232077918
-0.4382779310160186
-0.6108684856792869
0.4860363382239198
-0.6504334969315875
-0.490676360617425
-0.5717565051120125
-0.763698701521009
1.084929223432222
-0.1635397159602296
0.2994965134578786
0.2235559143972522
0.2422824910809486
0.06173328721979138
0.294096358176109
0.08530179010656926
1.90962206820637
-0.05860107914307705
-0.2404257194687241
-0.711873105395073
-0.3953712225856293
0.009876748348367825
-0.4985211911282319
-0.6054507758383675
-0.7557117958031467
-0.6802385838552721
0.4508484331767286
0.4206579545567658
-0.04638587275563127
-0.4362683735016518
0.09591477783024079
-2.100601361502307
0.1741679250458172
0.0288083281146472
0.07237195256752041
-0.3438102596243161
0.07954458704287259
-1.789980147215712
0.401836042240947
0.4320176190318295
-0.1320698220494916
-0.3789791751299827
0.7043357595790319
0.09364920651059579
1.030507923687642
-0.4660943665445172
-0.1414261515354068
0.3132975100828299
0.05728779957273178
-0.1110818386000459
-2.51967404080807
-0.486661204496001
-0.8451033090843111
-0.747308471409915
0.171126745577781
-0.1291657351111725
-4.751814301818292
1.183262360927507
-0.06704772741416416
-0.2475410395637749
0.5846195783445988
0.0920660164185394
0.2251873013678082
-0.09955678435178364
0.08663518598182512
-1.911098020094944
-0.1416117863033495
-0.5761277792351178
-0.1653644143221122
0.05005483915129469
-0.002066070181278425
-0.05959583588854495
-0.1045360012143675
-0.4872531933844544
-0.8862359850602868
-0.8528271280276865
-0.8198991341830579
-1.068862226805335
-0.2471656321897223
-0.02196863159077391
-1.027097464892798
0.01937291326941825
-1.091301995174192
-1.27971522883022
-0.2129236718073618
-1.549774770504826
-0.1838257524001631
-0.4496465015203963
-0.3932102994105108
2.006532047790608
2.139638532751453
-0.0863736516405277
-1.074828293016221
0.1531905205584488
-0.3462288854185964
0.1762469710401098
-0.4339410828858047
-1.42747322396485
0.005235650514794544
0.08388565138273471
-0.8283954064525016
-0.005051905049846202
0.1895397290166771
-0.4855884154657746
-0.2028075212413241
-0.02676975754088666
-0.5396900283274778
0.1594603609816353
-1.368487928448982
-0.08608450238953762
-0.07480545793235763
-0.1664024989192074
-0.09209212811247917
-0.4215588146514301
-0.3860709057267065
-4.914710951958596
-0.1300995998054944
-1.369165759102922
-0.997843839907901
-0.4453774323025944
-0.9160757564056422
-0.2879690931817521
0.055667789123104
-0.8566546080562237
-0.07814443548293379
-0.1414977903575898
-1.47311390768621
-0.334380941843393
0.1324949313859163
-0.1868010988078437
0.04208155818257205
-0.2864278132915383
-0.2112561945225702
-0.1478403455488942
0.1084531340027493
-0.4556928490695384
0.1359138135799808
1.389402855273714
0.3805147435730027
-0.269270177013901
-0.5985300899006772
1.752216055304603
-0.4814233472722155
-0.3383202949700774
1.70014088028799
-0.2228149467767447
0.1821216776570269
0.02032357677727643
-0.7739779689190662
-0.2962893430716798
-0.205662345490254
-0.2919327777124717
-0.4681420334537671
0.1581867127305244
-1.284576283794385
0.004062222185952181
-0.07959826394039378
-0.06591166829906636
-0.3157360003893447
-1.003841801917199
-0.02865583220460504
0.1181622195855174
0.6230021913358943
-0.3512463441720279
-0.9200226860171553
-0.5773108456524078
-0.7302426464305147
-0.2838396641047308
-0.1790698083412148
-0.101492216706179
0.4074225961335273
-0.3966242115596765
-0.08211358277066287
-0.7117147858269327
-1.701261658029498
-0.06150450097880045
-0.7089701081892827
0.2720243327202154
-0.1692521808142269
0.02233631237051741
0.1053354011989329
1.897507602102311
0.08685863192117664
-0.06576488713948454
0.2320548308315752
-0.5639542954684905
0.2747482022212139
0.09040160300799376
0.1862412950354232
0.1404218552698928
0.1319061959509037
1.834350965301554
-0.248185114479118
-0.1971247745152787
0.04156290843107411
-3.070151044163632
0.1307452363910861
0.8087100507347981
-0.1372157085971834
0.09989900706990516
0.4826000089748969
-0.5487837023534036
-1.198557887215532
-0.2570013227655066
0.1926446045585251
0.6278315589271416
0.6410109135691801
0.3925663200053252
-0.4682338879256909
-0.1353566572344815
-0.4520308830231347
0.6331258631995386
-1.395193452783505
0.04070816917732851
-0.2177113054328487
-1.143281835627542
-2.000811601708168
-0.3195209734763656
-1.690862087139278
-0.01275598826216164
-0.4991439028592642
-0.9230712906359229
-1.047375413661348
-0.1104688071028419
-0.2013416838587003
0.0933567332267894
-0.2172873756773282
-1.141599338288089
-0.1756694350858682
-0.2409516640328798
-0.8092736148303241
-0.31780649361278
0.7208571816672471
-0.3395913868465645
-0.2676406979087262
-0.277877109176527
-0.5210275568701278
-0.4079392175132687
-0.03673381746944292
-0.1758100771638105
-0.7041794396603119
0.2325895230677045
-0.5682428246206214
-0.6664935999862625
0.08304080571878228
0.1439797230531311
0.08055502432253557
0.1036725681498093
0.09905061462639353
-0.3135318696790774
0.6329799423984646
-0.2297409999871684
0.2762312322122243
-0.2717213326582485
-0.3894470535521027
-0.864891621460356
-0.2958469192917191
-0.412996156689364
-0.2667021920215667
-0.7544312464764433
0.2243351831129805
0.01054008730612276
0.1969044597808005
-0.1061018435107208
0.01232722370183354
-0.2447858558140729
-0.8060871990087403
-0.1126837464395409
-0.6436305459080751
-0.2490437715282726
-0.4511166000621976
-0.2276856970651862
-1.187058822168902
-0.7173201453669945
-0.610706889405771
-0.01008478291322498
-0.1974820678888397
-0.4076316800965801
-0.4775519343067723
0.007893058273897373
-0.2934425822420917
-0.02605829970591976
-0.2089840429248352
-0.2288704674708837
-0.4879301920253746
-1.848560507866036
-0.3955554638539561
-1.039923348257695
-1.148303996879446
-0.5507887452330985
0.03161796841916869
-0.5294680037328111
-0.2277131830276812
-0.1762159140235426
0.2948797638814235
0.1280850126490947
-0.2542547663388903
-0.0605480505230073
-0.8442590634445392
-0.1510574195645841
0.06159183330188285
0.04145176615860453
-0.7731619107324338
-0.345869792619232
-0.6098311280353796
-0.5252972710647639
-0.6617501328056726
-0.4931328508527439
0.3148651155398074
-0.4173621440570373
-0.722465055115182
-0.3721584338089836
0.1553889289069245
-0.2647926117614489
0.07249473987615369
-0.5049631561598589
-0.5810029759086335
-0.3236131197940855
-0.5776241968854561
-0.3077243371322156
-0.4821381192954873
-1.257983185966815
-0.3250378902037657
-0.5860456728179683
0.1046711744841656
-0.2892473127895807
-0.4014634882282421
-0.9380411829614713
0.5809894542423505
-0.142232045889917
-0.007985574503346906
-0.8945798611327553
-0.1784236495307809
-0.1602224413352998
-0.4751344953410139
-0.1145719421355919
-0.4425806008813357
-0.2996065438829525
-0.1382463042925473
-0.5319977032508985
-0.6483126536436129
-0.2481100019584689
-0.8784866777120984
-0.8186719387375498
-0.06215820124419753
0.1203175767838156
-0.5265853558260408
-0.129571551953756
-0.5457949293314245
-0.281802308756519
-0.5601032765075771
-0.1274494899043872
-0.03942153436108866
-0.9757059928847278
0.1796533322031267
-0.656117960875684
-0.6883250547901584
-0.7433522670602234
-0.5452456443926166
-0.4505621002665117
0.1069429800107172
-0.4457476985918842
-0.6581292915989643
0.7862158610294846
-0.3879507966207369
-0.02216565907218065
-0.2706250711708638
-0.01068978445501621
-0.4594338316493486
0.2702359834431227
-0.2852301863742417
0.4618368920388897
-0.1374275890695865
-0.1449476324922546
-1.863115511265625
-1.136635739641018
-0.2367619213531318
-1.084324851438434
0.09874659654527805
-0.6789359584824148
0.4172853809389452
-0.7227461309023953
-0.6475474985254238
-0.3788287519441522
-0.2361322093615018
0.1717658408204662
-0.3518145351254501
-0.4880359482513218
0.08911003625044646
-0.3298086015164175
-0.08206203446321024
0.1070958618689842
0.1527895870203763
0.03026760108166037
-0.4366970235690828
-0.3114353172170827
0.004700506681557128
-0.0383570411878294
1.031001668011387
-0.5063743996362616
-0.4453580153769024
-0.448828372005925
-0.4731814010408634
0.2666696260603046
-0.6543157368874387
-0.04475798725341965
-0.3111837617683348
-0.4126240111910092
-0.4187640939504625
-0.2451527548139709
0.007466563926946958
-1.00982280260315
-0.8260568320681114
-0.02136385130465012
-0.5316143728190055
0.3178894218479149
-0.284252890965473
-0.5014179786409884
-0.1832929969842481
-0.1962833252097689
-0.1859220230945208
-0.6921236449257684
-0.2406369413178861
0.6680364979505261
-0.3998633168937535
-0.4913752786863876
0.1539755131212395
0.388851976743954
0.3321306925043755
-0.2543845931468636
0.09244368441843032
-0.4221422506719102
-0.5470779620826071
-0.3622331815586877
-0.6574192349129939
1.04555515833765
-0.5194430012191631
0.7565930262449182
-0.1088706051566508
0.3788106748654295
-0.8576743566733839
-0.477180959752766
-0.5619379559922282
0.3241283826492418
-0.1634209287167112
-0.8540023818957609
-0.7666356221219301
0.5138500207706908
-1.219986293472478
-0.1405711578054491
-1.179985554019592
-0.4866770479770496
-0.1121134637375361
-0.5603150692412143
-0.205922286248181
-0.4962684261367283
-0.8005015727589072
0.4986131886429275
-0.3921468799161079
-0.3867496757286882
-0.1125281008412686
-0.359888617917948
-0.08185139998010713
-0.4276252920068229
-0.1250185861741625
0.02364556438526798
0.4700639577964516
-0.3442048943880135
-0.1513965723160326
-0.3269194809976808
-0.5098039482459149
0.03119791648435133
-1.593439729326307
-0.2493976101274472
0.5024441990688233
1.678192370289156
-0.2840083713734517
1.195424904451664
-0.6588556991594451
-0.5204580751200091
-1.160904242329038
-0.01503449510832712
1.321618009517223
-0.6460455203863923
1.046858533666256
0.1042531318706863
-0.414715312895323
-0.1758927675969883
0.1132749133548231
-0.2591315169469857
0.04386948307868559
1.15649602124575
0.348765596865981
-0.4827760557770837
0.05468581329405105
0.1255633822186061
-0.1452786196379654
-0.3355372163110794
-0.4419100160308942
0.09946635333539358
0.07265990977410448
-0.4882062961695378
-0.1073876229420735
-0.2191377928876501
0.7079528178700811
-0.6386152135494686
-0.5560473349630423
-0.1157428332066389
3.206914945342399
-0.199712261800313
-0.1385764489588202
0.2628135187124596
-0.0167292811245809
0.2134932977796253
-0.7066237887538551
0.5080650565394279
-0.3539047520346602
-0.2700366670223976
-0.3037416162310205
-0.718860148574212
-0.1870254845975733
0.09550339186619299
0.835590773811959
-0.3128632977583592
-1.226862063009697
0.4986633539596068
-0.3448164688966646
0.307546853744821
0.2666165766771978
0.220371477718118
-1.166368862502124
-0.3455297662461493
-0.3368970192725928
-0.6663680179764545
0.3347552372783911
-0.9213007176924811
-0.269967105166685
-0.2619130268778279
-1.899476633325709
0.6253039229603796
-0.2047267724165249
-0.2408895996398404
-1.325549610583528
-1.211961179485526
-2.289335275721585
-0.3860757563983878
-0.1664405895722773
0.3213460900050935
-0.8588420662958676
-0.575173243998417
-0.2766946816293118
-1.43669967150579
-0.1805800545531486
-0.2276363524467499
-0.1392984402319911
0.1766508318064494
-0.4125456785296153
-0.1975160127095479
0.07499612501197193
0.1559691167140911
-0.4177596654628982
-0.7044161005498649
-0.3454817748947203
-0.3068488920495681
0.08302902858948559
-0.882839366544682
0.02874561541429964
0.06014384609419846
-1.131758956904055
0.04673323454996623
-0.1378782668387185
-0.127241730955513
-0.08108469898956629
-0.5315352355291703
-1.393897925792061
0.35927851476576
-1.123185412097582
-1.658546865356031
-0.505315077451217
-0.2252393241434793
-0.3333645694530308
0.21416556836218
-0.7339293719033471
-0.1019221144517216
-0.9308721704762045
-0.4955946454051387
-0.4680004296326026
1.332722948237382
-0.100529022206436
-0.3229938461446955
1.493783491232356
-0.4582003236320633
0.06047619769489157
-0.5240913737602361
-0.2309305265039241
-0.09223847304504285
-1.201238958757409
1.643040734493315
-0.2897482594204051
-4.147036401049426
0.4576740420326985
-0.4663489319216871
0.5192871438593096
-1.187904683011846
-1.346106470049915
0.09164341955974604
-0.1538642814130918
-0.1718912056998861
0.1908757646234148
-0.08673898958899801
0.01178938418828319
0.6103177635155155
0.06173528215147349
-0.1142767112097407
-0.4340677962031317
0.2248915526085037
-0.5921654284927227
-0.03965393590059087
0.1092481066005961
-0.8004825970986755
0.4130451157010785
-1.128024203996923
1.594008434404689
0.03990918823816384
0.5454905265139303
0.9372703568012237
-0.06644201325047633
0.09557182424364086
0.7161835985857768
4.028492128974459
1.927279311349041
-0.9395146968684249
3.222266403442319
3.320495589198646
2.670206276091978
-0.1958679141102569
-0.07050083936982633
-1.384024198531837
-0.6371820711098392
2.17476328264084
-0.05949600725404192
2.817588910336984
-0.01737938057301054
0.06800565724346684
0.07238701135602661
0.07812218526683537
0.0921180698505667
0.100205563944461
0.0686372852910795
0.09692744755338707
0.1009280868562683
0.1133655739234931
0.2351442874999236
0.0656999087532516
3.881075020265157
-0.7105592470029405
2.743598236210794
-0.004845784314751043
2.330242498246818
0.2764022204171851
-0.7566593494264036
-0.5573500243143683
-0.9557937865543044
-0.4508989703001116
-2.181103861689337
0.379103210365427
0.5271154454406591
0.08043466329036292
0.3338046269363749
0.2965606779168836
0.2992416696820204
0.1575189051148741
0.06332675205497014
-8.346090345836609
0.009171850068780662
0.1336117016228186
0.1943281696198378
0.08692412264716073
-0.5045344751638348
-0.03718347733029993
-0.8231540446542588
-0.3022851364191445
-0.5301721356004048
-0.7964874549193329
-0.9625958463859097
-0.3351399355341659
0.2037364828475432
0.2694319575414459
-0.06650940691794746
-0.9266629046034601
0.2398978539068357
-0.7496106698499168
0.1096844817306551
0.1281464668413754
-1.720744539952322
-0.1307737295369937
0.9120722797764228
0.04080758530463329
0.09174763707401672
0.1257533597452293
0.7687906348435311
0.5406189330833683
-1.399529266622051
-0.2990266810272964
-0.01197087401293142
0.2068966961592248
-0.8327916554845385
0.03242401538616051
0.4250579376408101
0.05541988426738673
-0.1350474381053197
0.02318125254985347
0.05575180489810649
0.06633609985796414
-0.1971858651509579
0.03264750325877841
-0.2430681412366471
0.1905760174572384
-1.022412351699682
-0.9342626642278786
0.02307906967886879
0.7076534587353907
-0.1718019813036799
-0.1439539977960083
-1.253633688928488
-0.1190612449833554
0.04240560383591389
0.1635297210522575
0.07183237082746821
-0.4744209059629829
-0.1195537825098844
0.09554237796783438
0.07111959185296551
0.1250102302485444
0.04676321223128248
0.3426922213228234
-0.5143588181875838
-0.1716822315255121
-0.2475247120014162
-0.3161582927102166
-0.7054475704341046
-0.6590907196612867
-0.3436061060667517
-0.483719764681433
-0.03230004022049355
-0.2512593999375431
-0.03973211117631489
-0.632497139548996
-0.9246463099659733
-1.185479996890435
-0.3108944156240013
-0.04007123137979851
1.662573227267324
-0.5761477015262613
-0.2173544035629139
-0.3696101236591365
-0.1247928300217173
0.01067503708818788
-0.1385532956416522
-0.3793959039132356
-0.2985499170859708
-0.4769653801651032
0.1704805144454836
1.251258835166204
0.0984839961873879
-0.0248413699743135
-0.07674834900443932
-0.2002073184115763
-0.05633523634564733
-0.1034601656421478
0.02146632245455923
-0.1754351822823318
0.07129609394572339
0.1443526279492648
0.4189701110001324
-0.2185375106769986
-0.1432768038101797
-0.5354139145138133
-0.2978128011252388
-0.157189783983822
-0.2774669665926004
1.596591900380602
-0.04681158653791129
-0.03332014513267296
-0.168925445479768
1.430206351919338
-0.1876273573554879
-0.03034377384006915
0.1634410801589743
0.01269688076338065
-0.1292141989722651
-0.147312027605859
-0.009675467310762718
-0.2302224802602564
-0.3197052844985899
0.1638184580943393
4.530789747139091
0.1098027603627436
0.3498748652320592
1.404380589354313
2.53602756109022
-0.1727459591488781
0.3588566223063057
0.5465341189905377
-0.1226157553980161
0.04856943190256104
-0.1611686320449503
-0.1707741743155989
-0.3285772911529282
-0.3017619585146881
-0.6600740630761869
-0.1595059464636219
6.400277727826281
-0.06392113878398434
0.03854454380959262
-0.2615884995537947
-0.348733387329473
0.2352161763732626
-0.1379735308811854
-0.4701119704898987
8.809596714758877
0.6773628262936804
-0.1588846752140077
-0.2387378800758355
-0.206615079520864
-0.1217135977860077
0.02652342634056936
-0.1001989254613132
1.191668942658751
-0.09878114722204222
-0.1640774987060555
-0.3221301558496233
3.139132742068162
0.5586526878048103
1.113793726490068
-0.1350989052645606
0.03148511251900309
-0.4519179223730214
-0.1290743031512289
-0.09905726856059208
0.5656188825465244
-0.2068126087126818
0.3144314613866764
0.08637634228080202
-0.04451694629343406
0.1968076944246396
-1.228493655634675
-0.2181360226800175
-0.2108973823123652
-0.08580780671112899
-0.3129047580662684
0.02516810835558486
-0.03402972937150935
-1.46225595796198
-0.9730816601432595
0.2223127874652069
1.019120589987574
0.5510822913893962
-0.4231257610196674
0.1876930290706247
-0.01239946160298167
-0.1233588218692452
0.4382690298182626
0.5543272909489401
-1.366479087000297
-0.3151094147221206
1.782622987662427
-0.2192138426339265
-0.2373235322205766
-0.9376208795224005
-0.1669204508010496
0.2119111302684528
-0.7832379830986723
2.312874384223743
-1.147606987701255
-0.08218678264723629
-0.1222341011968926
-0.1092918952898606
-0.1394681718977908
0.2744730323854234
-0.2358651424950093
0.7008218440960877
-0.2378579657532279
-0.111764551978034
-0.1635389281248251
0.6824973702097422
-0.1671169984261281
-0.07358322419657974
-0.1499193086905757
0.1365165700224739
0.175088886945098
-0.1146683342904745
-0.05773089068395579
-0.01595426608238319
0.04949336926658607
-0.07183864679809168
-0.04968036580105208
-0.05986850992635476
-0.0797225151462445
1.345637534035756
0.1437400661163735
-0.577881065865086
-0.5829780844310498
-0.2742536705531549
-0.889669684554754
-0.2040074070589936
-0.2192787635786498
-0.4287671046614154
-0.4977790517421777
-0.2208327091956581
0.02333284823181495
-0.3249680302130304
-0.193544154606043
0.4634022923129442
0.06235982695517048
0.36633035574914
-0.1036337843411439
-3.360480065777828
-1.677704923287666
-0.05817797766027479
0.07799125137341439
-0.1391157573696615
-0.320328183958845
0.05153955777738648
0.3657151351173596
-0.2208783599563861
-0.0998470794518829
-0.1201124812279558
-0.2076441524900277
-0.1440118257323307
0.09386740795416232
0.1083462966289602
-0.2008545640139837
-0.5325646185186501
-0.05711930594429879
0.03042131649734071
-0.1699673744260907
-0.05864370177466298
-0.5251518269889676
-0.3843106280456391
-0.12875891658137
-0.2432533686444005
-0.1483744865312642
-0.5465343889641082
0.02235929389514464
-0.05777294517904259
-0.2938368337588382
-0.07991882263506495
-0.2767135061954842
-0.3009263939458968
0.2417396585795246
0.4989705999547727
-0.7562056112831311
0.02815768213486644
-0.01562757826185349
-0.0726615852525157
-0.2137042149142275
-0.494533236490427
-0.1327636289974918
-0.1464572615889987
-0.1687242825701356
-0.05711477530097884
-0.3220833104055403
-0.02143868424997152
-0.2005906464893103
-0.04022374256138261
0.09829768263019188
-0.1268367336117498
-0.4668808220393457
0.02333599175358414
-0.0998604373137634
0.152435743061759
-0.0915495574974638
-0.2163294792662313
-0.1249787497654664
0.1911407819712113
-0.04931455603019089
-0.1069600318322195
0.06406309573061517
-0.1582925936243365
0.07119631619323535
-2.523423905801533
-0.03226231637104222
0.2707753295359546
-0.006127674262852668
-1.618047833525247
0.2840046470343305
-0.4162583284262406
-0.2394578446590485
-0.08178601282983439
-0.05595648395789797
-0.354955921547098
-0.06016884183746504
-0.6316710658528304
-0.06012487401630803
0.2271756755497878
-0.2104783322935538
-0.6134354694736515
-0.2842980582014426
-0.3661276826249327
-0.1158503980618819
-0.3117226226438189
-0.06989859014452052
0.3279307156033129
-0.02074245329415211
0.001280873272829735
-0.01353119415285301
-0.8879200733236922
-0.140678512849478
0.5285366642394119
0.05398214012291023
-0.1550711776060273
-0.4272232301347056
0.1225473958465555
-0.1959805814481805
0.1440610078201622
-1.145777156288206
-0.5095507455616893
0.1467405792886413
-0.1005281457820389
-0.3293791586102877
0.2603676611399893
1.452435961099644
0.03230382999115623
0.07233711912462283
-0.3561544853204492
-0.05833068263979317
-0.01715909422468762
-0.111911275919432
-0.1532265674471244
0.03293467216411734
-0.09381055327586003
-0.2773507490282552
1.182703579987206
-0.259076543222568
-0.1337629228995365
0.07483555717722394