/*--------------------------------*- C++ -*----------------------------------*\
| =========                 |                                                 |
| \\      /  F ield         | OpenFOAM: The Open Source CFD Toolbox           |
|  \\    /   O peration     | Version:  v1906                                 |
|   \\  /    A nd           | Web:      www.OpenFOAM.com                      |
|    \\/     M anipulation  |                                                 |
\*---------------------------------------------------------------------------*/
FoamFile
{
    version     2.0;
    format      ascii;
    class       surfaceScalarField;
    location    "0.9";
    object      phi;
}
// * * * * * * * * * * * * * * * * * * * * * * * * * * * * * * * * * * * * * //

dimensions      [0 3 -1 0 0 0 0];
oriented        oriented;


internalField   nonuniform List<scalar> 
37423
(
-0.1097517738025593
0.4239843452045582
-0.4558413793123509
0.1416088079074465
11.04426450206415
4.732667049971635
-15.7769315520993
1.581773435924942
2.846571454509045
-1.482093846618029
-2.946251043801488
0.5934079983924864
-1.12209710779709
0.5286891094723469
0.1191276854204059
-0.1668847138564528
0.02965262615217742
0.01810440229673045
0.05234151137843952
0.1431979671361662
0.3002165438558072
-0.4957560223326487
9.143130827984791
-4.641988115738739
-10.83685595001296
6.335713237764764
-0.05693491399602231
0.06382142474841837
-0.008952158678836093
0.002065647946329134
-0.1774297798394241
-0.04517972785164159
0.385789359736965
-0.1631798520281933
8.638233533536733
0.6771898308425324
-0.4597542408867735
-1.423007795256271
0.4306522844910259
1.45210975166972
0.3011094393184006
-0.5525465636123832
0.7680466665756746
-0.5166095422087782
-1.069871324813409
1.286161410962876
-0.2162900861232646
-0.4597285906784127
0.4961979616683935
0.6068453924784063
-0.6433147634049827
-16.2902499012022
8.944296152199751
-0.0593087208435868
0.003759710425936725
-0.1229343713955172
0.1784833818273556
-0.4727197993881828
0.8182377492642682
-0.04440851052180151
0.1833272452604076
0.04743038338992595
-0.1829521581225211
-0.04780547049847148
0.1034189240655521
0.02065695262908409
0.005469125951398817
-0.1295450026286793
-0.02011733942693874
0.0722285815682874
0.02187393948005367
-0.07398518160360419
-0.2210141220310817
0.3798514094313579
-0.4239408765293685
0.2651035891407034
0.4092489486335707
0.6839325805317988
-0.2672937637478267
-0.8258877653652481
-0.1200982409750844
0.1277035463199573
-0.1111600738233359
0.1035547684978796
14.76515441702745
-17.68508560129146
-6.354146297458193
9.27407748158271
0.5932598786485439
-0.07114836405410499
0.09235974707727816
-0.6144712616654042
-20.41701491918497
9.337975972584053
11.07903894659299
-0.1845145836201976
0.1379396497564374
-0.4261448654958406
0.08538836015600522
-0.09419626276079955
-0.1744209019524998
0.1832288045721087
0.1642771710173308
0.01217132029629075
-0.179831037813511
0.003382546528980111
-4.258241554492862
-22.44982923108369
2.756744626274315
23.95132615911145
0.215054291942253
0.3997962529815827
-0.1544218168163749
-0.4604287280821115
-0.084741888475099
0.7090451290633951
-0.01719144579732034
0.110063662901755
-0.1041440394081523
0.01127182232013172
0.06070100250838782
-0.6379498063667299
0.3331607419647835
0.2440880619311983
-0.01860219328684079
0.05139884935323439
0.1004194224478726
-0.1332160784807871
-0.03926351339236696
0.01284793993180562
0.1249278790255285
-0.09851230555006503
0.2376041372778189
21.5123655471854
-19.3764812248954
-2.373488459576531
1.225094777581733
-10.37763824811129
9.190340993064947
-0.03779752266010868
-0.02462533155852026
-0.04522272324738327
-0.103333168723467
0.1731812235488903
1.625449443220671
-5.646987284398207
2.311694100642113
1.709843740628458
-0.136554128483962
0.01998139394788073
0.1474442649730955
-0.03087153042555592
0.5560114537310286
-0.7021911705928947
0.1937371172501733
-0.04755740037122601
-21.01327129807351
3.668408573192267
7.174897267562784
10.16996545725277
-0.2191634381529034
-0.925191638960998
0.9967482778668675
0.1476067993290399
0.3572030647045029
-0.01781146263463606
-0.4960330715822429
0.1566414695097632
0.07637293091616944
0.6586876697807031
-0.1197346031974386
-0.6153259974496638
-3.588383517212081
-21.74126985173133
22.61174124255167
2.717912126378354
-0.9517549973857282
-0.668608696859645
0.1745424332233028
1.445821261024533
0.5177434816308202
0.2488505327533562
-0.5238085731994304
-0.2427854411695522
0.4238678012784271
-0.1808134501317908
0.3725104213990506
-0.6155647725197315
-1.088727305355704
-9.782399448317529
10.87112675353911
-0.6988048950088994
-2.748829159113489
1.128716227698159
2.318917826705186
-0.2513032202229233
0.5904291330330852
0.04625597307597103
0.1676460811822686
0.04149909894883213
-0.2554011531777501
-0.1307492481263494
0.04383550525233798
0.1073876404439378
-0.02047389755622666
-0.5233706228224023
-0.0804501159770471
0.09682791851845798
0.5069928203625348
-0.08733547626232721
0.5930306864334302
-0.874549259836913
0.3688540496952595
0.2711736823313467
-0.07188646406251281
-0.02543221719988941
0.0130837365907381
0.08423494468234077
-3.232840641113701
-0.5609985573888415
-3.065801399605121
7.254159773038393
0.04043365914565369
0.03759456760565799
-0.0328488899141662
-0.04517933682670305
-0.006507800194213239
-0.07589224770164917
-0.005013423597390694
0.08741347150272552
0.3922845384582323
-0.3780183743829319
-0.1347451842286258
0.1204790201869842
-0.3205565052798641
-0.1498087681633562
1.154297854026115
0.03893221538664247
-0.09967360192239311
0.01411508631347968
0.04662630024322598
0.1153667682148075
-0.299737537421871
-0.1583582109626257
0.342728980189174
0.3433060061703528
-0.7914132200198815
0.2206338276935237
0.3632274077102666
-1.14939681043277
0.5655355750668584
-8.547225921467069
3.962534899001377
-4.785775065018864
0.08675233437577094
-0.04010138869195092
0.007829501595073864
-0.05448044725438407
-2.393836517896946
1.020482974997889
1.113372398033151
0.2599811449055167
-0.5341661868107035
0.5350865247654203
0.09337101081581616
-0.09429134872499981
0.02166001727009398
-0.2947983424548302
-0.3571598127895663
0.6302981379825014
0.1191486219914649
0.07953969680953688
-0.1536161682081058
-0.04507215057366224
1.649071248435031
3.010324535619774
-0.9775665921110966
-3.681829191801643
-0.02396594900041667
-0.3940330755422305
0.7262595552631423
-0.3082605306401568
0.6365916555957849
-1.983444961572691
0.3930956478726411
0.9537576581618311
-0.02499809578761354
0.01132343344417151
0.013674662354845
13.83091629650368
-1.13320593999195
4.755057325479466
-17.45276768207497
0.7365873221722457
0.07204952540612261
-0.02055672250720385
-0.7880801250471178
-0.1826637016692706
-0.5335453797706247
0.03759202737607276
0.678617054091053
0.308748555052249
-0.1395383861106363
0.1082729203180852
-0.2774830892269571
0.008003567534659299
0.08253780681839105
-0.077798878032143
-0.01274249630148057
0.04302426304410865
0.0251761285569608
-0.06820039159157855
-0.08143810684684644
-0.5317707475827834
0.3619056342083792
0.06305529150773198
-0.04114117371375099
-0.1071395108540108
0.08522539307741664
-0.1046938549634226
0.08826940224718727
0.01642445272951487
0.05992896641058097
0.4324445175568435
-0.05978860875347868
-0.4325848751891416
0.04025284833211287
-0.0151944946161242
0.09631616277523711
-0.1213745164789149
-0.1176849203734256
-0.2310027405652711
0.4640544291654971
0.2948152674518301
-0.01270393482400294
-0.03162663290047427
-0.4618902777058884
0.5380573782788977
-0.04454046764365136
0.1634148700697956
-0.01927769464238004
-0.1719614139189831
0.02782423851957147
0.02019688422259554
0.05343628613896571
-0.02981620987872487
-0.04381696046599455
-0.1099229593931637
0.517122630175713
-2.070673058246781
1.66347338751495
-0.7099126924683424
0.7786076432772594
-0.1341214484288595
-0.1482882331321096
0.1910030783538726
0.4333621209747788
-1.179716392382796
0.5553511930895778
0.469694209711173
0.01451101686306507
0.066665730658863
-0.05824389319400945
-0.0229328543125928
0.04077310357900406
0.05410321070442196
-0.1947698459556162
0.09989353169281695
-0.6207946803507353
0.5890094754098603
0.2318660732931231
-0.200080868337717
0.08465447633336841
-0.0398729827438653
-0.1067017114151988
0.06192021784403708
0.0875229113551553
-0.09501541646808345
0.5044017107578171
-0.4969092056318293
0.0607997717393564
-0.07501595890449586
0.1082021259732669
-0.09398593878689003
-0.09850468050066301
-0.1503743585331127
0.3797226996108392
-0.1308436605776224
-0.3262017891290923
0.4748171619693461
-0.2471200533444757
-0.04980800906050349
-0.05528999257080059
0.1729783094117688
-0.06788030776638353
0.1186997282859681
-0.04022617265147094
0.08600189673912738
-0.1644754523525676
0.09869118904376273
-0.002968818362224493
0.004534867367403356
-0.1002572380367075
-0.0671216174180773
0.03463421308096571
0.1347096218587016
-0.102222217489889
0.4331084283716403
-0.548089434719374
0.09989949995792483
0.01508150640020776
-0.4314192083587849
0.6571802434690613
-0.2259750471476011
0.0002140120632926173
0.07320526213112108
-0.224603783035194
-0.2069633482928205
0.3583618692154255
0.04289494118894341
-0.0334682312605955
0.09453092781796783
-0.1039576377316147
0.6187945824569667
-0.3591053549664227
0.2901089419127021
-0.5497981693505781
0.1002200243716692
-0.08634936336786428
-0.02578436166662663
0.01191370068186458
0.1153462067203887
0.3189094069977357
0.0354385960221705
0.4577773418958533
0.1926553896080265
0.7020357159217857
-0.114867766332338
0.2170719029369052
0.7891960846670332
-0.3042322716527481
-0.2215396776834364
0.1272752738894871
0.1791607164798027
-0.08489631266568143
-0.5297970627047646
1.305480307645137
-0.5577152621468758
-0.897573813635319
-0.0301718687459409
0.08632431806698743
-0.02120502692331203
-0.03494742238335422
-0.1380748870826491
-0.5234667854052087
0.3657311873652168
0.2958104852113982
-3.184636933805311
-2.983938403216253
3.800995454173371
2.367579882767147
0.3279583754233721
-0.2877412771542018
-0.592001667999803
0.5517845697858734
1.826705324233935
-0.4016993577095189
0.4691978631317091
-1.894203829655461
0.3518301736319768
-0.5292895811519602
0.2381604100559922
-0.05613257026987733
0.3346478330043489
-0.5378167636189102
0.2593015008992138
0.1510345325489735
-0.183490721766937
0.07605093520263541
-0.04359474596113575
-0.1284798788672049
0.03962291937803634
0.3189438035677254
-0.2300868440563483
-0.08273229372420077
0.01337477720013324
0.06965864188890551
-0.0003011253518307886
-0.2072234990567922
0.01522192226064016
-0.01854425066726605
0.2105458274885299
-0.07617874884081943
-0.5095042758352012
-0.013784881662403
0.5994679063706412
-0.1879846324192357
0.1315864044785311
0.05639822794948092
0.2239743515834516
0.02737883606187567
-0.1678937339297691
-0.08345945368467775
-0.01098972983651819
-0.1216900252743616
0.1690596608256421
-0.0363799056956481
0.2058148554229137
0.06195183183433936
-0.09940543714988927
-0.1683612500862942
0.2989787481632507
0.2233335134393275
-0.7251363976443908
0.2028241360780368
13.67443435357782
-9.146779534221869
-22.51426617358848
17.98661135416434
-0.5811472417833188
0.01970141204473315
0.6209156729362371
-0.05946984316107398
0.1189731004215152
0.03869281023782351
-0.002515079573156541
-0.1551508310604009
-0.07159897258145637
-0.529873814577691
0.6099034304876468
-0.008430643315763028
-6.755953787599358
-5.429289455376932
-17.44666893208036
29.63191217487431
-7.64659873692785
10.95137155415197
4.21019124845469
-7.514964065620213
0.09204669644605037
-0.07905458018076014
0.04254889810347785
-0.05554101435153846
-0.470495953007638
0.2346360293430004
0.07937108751876523
0.538462069290816
-0.09958899340015062
-0.5182441633803112
0.2335790750181256
-0.1204390268380604
-0.263514406704067
-0.2919257904027092
0.5082616229226899
0.4244135935648539
-0.6407494260373711
0.01321262511734988
-0.1471486284650667
-0.4484757921438255
0.7561073144829458
-0.1604828938380501
-13.62290269363309
6.131267519840036
1.071144111663868
6.420491062046552
0.08279051653908949
-0.005485170193017371
0.1661610279603883
-0.2434663742837313
0.08123168434985821
-0.06878077334186787
-0.01245091099672145
-0.05048818156464593
-7.383377743584731
7.433865925030702
0.3942107917114727
-0.3673999235041873
0.4790704241649353
-0.5058812923494297
-11.17222384466952
10.56519870403467
10.6967964691904
-0.03986314353366101
0.5274449460655199
-0.09011675495450863
0.08600381915338375
18.00367257133605
-17.92761661502248
-0.07605595635454949
11.86427304786737
-22.98059236474071
11.11631931687212
0.8936368033423377
-0.1385075221145571
-1.546501902945647
-0.06984239204542275
0.1341177750298225
0.001580684742301674
-0.06585606771231714
-0.1143672635902512
0.1801216943430657
0.2284778377552265
-0.2942322685052144
0.4741780824986493
-0.4428049525289294
-0.2061807669103999
0.1748076369582622
-0.1298054932352565
0.549307781574366
0.4342850157798444
0.09735786166028949
0.06138780901132976
0.4912642281714112
-0.605950199934328
0.02039462306805905
-0.3095598018422601
0.1048929210395532
0.08422785397000937
-0.5464473489559073
0.911720242410478
20.81766399021247
4.745531214667346
-26.47491544724894
-0.5827770230543989
-0.213920719078023
0.4962963694996998
-0.4086696110626958
-0.1398117162450982
0.05218495782817885
-0.04723448663513098
0.1974517723158145
0.02249425980116998
-0.1727115454717549
0.3389650121789697
-2.650761887361456
-9.53252246793329
8.950443714075517
-10.45055412184146
6.234479066831446
1.56531316757368
19.52834101859126
-9.281228943921587
-10.24711207468249
1.110955074514896
12.41039973274146
-12.84416497648129
-13.66146316722753
5.836671007500503
21.13274152645127
-13.30794936671762
12.55195954468166
-11.62742418035962
8.526874987698305
-9.451410351995785
1.158530478945736
-0.6133841387203517
-0.2550373982542196
-0.483724959352285
0.5805292340099695
-0.1366674181816331
-27.23514314190988
9.994022189822006
17.23678736073431
-0.02095258182226946
-0.1331232954510868
0.1905229157340447
-0.03644703843756767
15.9199087866546
6.739735677399482
-38.28107207666861
15.62142761263454
-0.05883278863627664
-0.6077400742372032
0.05100809036122238
0.03028816825250329
-0.1448549793629997
0.04382198573787451
0.07074482539424656
0.002656342428799909
-1.65612796016539
-1.976969432844509
3.942408690013936
-0.3093112969161933
1.847405633152102
-1.189226576168671
-0.103210087424996
-0.5549689695138406
1.377627389531839
0.1061094201955633
0.4857416815740123
-1.969478491239409
-1.144833781648115
0.1351277374924788
0.1804334720749605
0.8292725721760054
-0.1011710690192267
-4.71394174324856
-5.220429184985925
7.391502438771431
2.542868489505686
0.7367858941646994
0.1875379280194215
19.39017207460157
-20.81593019435947
-12.23570504741293
-0.1726547823943022
0.4586515650553326
-0.5159899311336317
-0.2860322447094414
0.2785553904898821
-0.3912580279515287
-10.16629438986563
21.43078065342942
-11.26448626360444
0.7733120893285064
-0.5919335622207176
-0.7111755897671445
3.888459517284491
-0.02698610320966599
-8.575415157293902
0.07218796350885931
-0.02863718929919
0.04473586636975617
-0.04750161058162517
0.03140293351765285
-13.8200008519951
14.91087386344502
-0.1913277447134435
-0.01349591304434612
-0.04456178839078043
0.2493854461769978
-0.2250031017174869
0.01481889468628284
0.2892837086455576
-0.07909950159435811
-2.766869999095971
3.544767964259149
7.196766419263572
-8.784799070303484
-3.197742414020136
3.931320408475098
-10.11939931690652
3.421208909263296
-0.03458789327812782
0.03968963020644109
-0.092207336465584
-25.24926636979481
-0.02533750946012282
0.06574236424182099
25.2088615149345
1.851424956748093
-7.969529984787155
1.839484746924674
4.278620281320397
1.893811460670644
-0.4048741801262248
-2.936676370199718
1.447739089723514
-8.731286822624213
3.8899407183078
36.31394261666563
-2.956368687781116
-8.474033543729629
8.160891259458614
-0.7797083201419227
0.0453340503649745
-0.05102621154093261
0.7854004813420472
-0.05760297921819393
-0.2758221382848609
-0.1380897911215981
0.4715149086698561
-0.3567620531790228
0.1731332361994112
0.04290231396001083
0.1407265030528584
0.02967640227182137
-0.02167283472395481
0.04166870174190244
-0.03790570386956521
0.1738096135022165
-0.1775726113520924
-6.546652463981196
6.576292226591941
-2.945303757638101
2.915663995117795
0.0005828338503563922
-0.0004265696006838279
-0.0001562642480719557
0.0005828338512568821
0.00675280782629336
-0.01945697277076847
-0.1326934818935848
0.09039410253042608
-0.01896407290077698
0.06996126535749014
-0.1413912949676824
-0.1759725435563837
-0.3213456454660808
0.4579470660669826
0.03937112297996116
0.3678532287767221
-0.4929851238367944
0.04657889543478221
0.07855299963549776
0.1736632388199028
-0.2590181704943098
-0.09447901035216756
0.1798339420470808
-19.50812386228525
-7.733104229733337
-0.04013079337588091
0.1382331259796813
-0.0003128652958647515
-0.09778946728779626
13.0083061389254
3.757936028015408
3.328816084593653
0.01792675927894303
-0.3564477032968397
0.0447313600735703
0.2937895839719559
15.35667895456624
-13.97885000799925
-9.704541167506891
8.326712220936246
37.76374021431406
-19.60996752206605
8.142629671868496
-26.29640236412623
5.259708688692885
14.78149643542524
-1.460986279693333
-18.58021884444905
19.52481873829347
2.928148066334241
10.95686580324545
-22.80411605872429
11.84725025550323
35.22133053889853
4.972094907672891
0.5616468427029713
-40.75507228942814
-0.07604022416642961
0.1330705290360351
-0.2489500044850922
0.1919196996438051
0.1918421860895013
-0.143734390920568
-0.6196687150490109
0.5715609198826836
-0.1397511874458612
0.2872227935183937
0.07380441274508984
-0.221276018788862
-0.06042272515058981
-0.006988630449942601
0.09149313560808334
-0.02408178000158134
-0.1294287542677787
2.009953677015529
-0.3947479113434809
-1.485777011368241
0.281785441702672
-0.5293297746532489
0.2131082961491315
0.03443603680731351
12.24342326176742
-5.705943233354144
-6.537480028452761
-0.2361146600114986
0.1224713470582725
-0.04415816613947896
0.1578014791108232
-0.3486628008729404
0.5019234142376158
-0.2163206421171032
0.06306002877713841
0.1367703702942181
-0.09510166854476855
-0.06414200649278486
0.01033271040317777
0.05380929609709906
0.6483417695640787
0.5361906284148114
-0.5222737487795629
-0.6622586491139556
1.931592622002923
0.3783418095871421
-1.073848951567998
-1.236085479942559
-0.1391495544342043
0.105618877075075
-0.09931533652796887
0.1328460139048776
-0.05956195938261067
-0.1329761406174857
0.09103882182419605
0.1014992781950125
-0.875327026604481
-0.678664931067734
1.791459159300875
-0.2374672015926422
0.3577411220559725
-3.86902728911974
3.342758709298614
0.1685274578819813
-0.8875202242227709
3.413836467526884
-2.586568837411926
0.06025259415636453
-0.4750748567126011
0.2360528871660643
0.3043588973794474
-0.06533692780508406
0.1775991122552785
-0.3205189992268909
0.5224635195746873
-0.3795436325757779
-0.06471640873765476
0.07542268082453563
-0.01070627207310472
0.1126524855621311
0.1485269789105181
-0.261179464468752
-0.06273647538257549
0.003851864005752303
0.0758732969855236
-0.01698868559299397
-0.05950352360054631
-0.09449782480798312
-0.1067741008537587
0.2607754492935639
-0.06988627919685229
0.09957520471041359
0.1549876892595284
-0.1846766147557281
21.18063275418673
-13.59296976716153
-13.97465136799378
6.386988380907794
-0.01989288838200568
-0.05516861786085056
0.002010889147296126
0.07305061711089465
-0.03443835450385932
0.04358715259160895
-0.009148798082512529
1.974737430458394
-2.582528964252601
14.27118959430716
-6.868133138903946
-7.403056455453479
0.0542941548217561
-0.1093289569484262
0.002525892786007187
0.05250890935461803
-0.05166055297548479
-30.34723081186293
-0.02683064426295253
30.42572200905049
0.1137883147269618
-0.07001476857383311
0.213466737162189
-0.2572402832983089
-0.05021178690173411
-0.02453124013143792
0.06812474641788453
0.006618280626889134
0.06182486127373191
0.6157613248460128
-0.2502276654004522
-0.4273585206660667
-0.06017285610912112
0.0006819491154500544
0.05949090700764519
0.01936409123586916
-0.0186915078963398
0.07125705907326922
-0.0719296424004129
-0.00621382174891049
0.03307958322203099
-0.01879245155210528
-0.008073309904480437
0.0532077778876387
-0.03637311398730809
-0.01683466388937116
0.0006998444149410357
0.06569268374915183
-0.06639252815367559
-0.1393755423204192
0.5718276367898849
-0.4072898496298691
-0.02516224481614378
-0.006178751822428793
0.09016403092016791
-0.09899616588864411
0.01501088680962937
0.08635239204998331
-0.4353422215821983
0.4168293381678155
-0.06783950859566235
1.270296578233006
0.4972042975782022
4.223534089554641
-5.991034965318043
-0.2834489357661928
0.1385119510891037
0.04404813268758344
0.1008888520077383
0.08167053789592416
0.01841916162873063
-0.1000896995042706
-0.02538829007044969
0.1435974530876815
-0.6192390545380267
0.5010298915567399
16.46717119028861
-21.11050443606067
-0.07373043971676688
0.1477405854274839
-0.001407128739693844
-0.07260301695824609
-0.5070413511445581
-0.01037811615972955
0.5174194673674645
1.563673361575148
0.6216297388272015
-2.267833747820127
0.0825306474018811
0.8208707309244074
-0.04167643584045914
-0.7215200019336839
-0.05767429312846874
-0.2486400055334407
0.3109075317490897
0.07550244162460243
-0.137769967816033
-0.0487854770492812
0.3730324832183253
-0.3661473657166407
0.04190035957798423
0.1366034893405671
-0.2903879702904139
0.1557549275778427
-0.001970446612223732
9.869514414975923
9.923532658204831
0.03614291672182821
-0.4213307799169769
0.1277525496062648
0.2574353136076193
-0.2240809726310555
-0.4394738093715699
0.5901279621209917
0.07342681988741863
0.01695164614039999
-0.1635412746060862
-0.01973778406771728
0.1663274125522744
-0.2756209643236134
0.0121896204315191
-0.009115683901424337
0.2725470278173865
1.436263071802025
-0.563908895873686
-1.677878324846165
0.8055241489797582
-0.03324647172237653
0.1262610511502675
-0.103305035062978
0.01029045566103622
-0.01397491208561194
0.0253902906570149
-0.1029676099731626
0.09155223141286299
16.13419666217378
-23.67093889211137
-3.149927125175748
6.281013368194424
23.0615918249452
-1.375596395064052
-0.1867811058002454
2.176000180646789
-0.6136226797503395
0.1664645531479121
-0.263672286135559
-0.2456214569482903
0.3428291899523959
-0.09056253895374806
0.01795759784837115
0.03196547452333893
0.04063946659947052
-0.102962466919101
0.002277229864760651
0.08637075169432122
0.01431448537162389
-0.1372913885947215
0.178338612384793
-0.0656725553309407
0.4810425011884459
-0.1851452744220806
-0.3969109434524929
0.1010137167114443
3.245881043032977
24.68160691005874
0.08746018725573322
-0.04803198293526147
-0.24165082691486
0.202222622617167
0.00481629168544126
0.3868972976351787
0.07598936446346254
-0.4677029537578307
-0.4864670378307859
0.07356431726484043
0.06109926208833839
0.3518034585056388
-0.516946311346093
0.05014611674888287
0.2554110801396242
-0.6119183626003633
-0.04468457461518686
0.700506306974607
-0.04390336967014052
-0.0161369284533685
-0.2499876691542638
0.7418023011377578
-0.4756777034753077
-1.698302918956015
0.1213314034728783
1.576971515484739
18.62260357392552
-7.364429534213449
1.750132099224838
0.1589097366999745
-0.2725319384296381
0.04703653679406138
0.06658566496622277
9.014377252494748
-32.50125788618757
32.21283480612929
0.04156332194629286
0.07258854613105845
-0.07337876448747806
-0.03700757736138311
0.1483424865149569
-0.0007021534795070526
-0.1106327556555752
0.06919322804360675
0.03106911228440491
0.04092171504665897
-0.141184055359165
0.03846605454138893
0.2633649202416666
-0.08125905404942838
-0.2205719207119819
0.4266369236917412
-0.2961512698240296
-0.5146974311076236
0.3842117772711503
0.09338327486324211
-0.02246639204798324
-0.1032737936097515
0.03235691080443612
0.4791243596256957
-1.106467320850581
0.2483885312025209
0.3789544300851901
-0.1019768531756842
0.06188027956465723
-0.03363386609811493
-0.06939559264104285
0.06269318151126191
-0.1170424429772609
0.1237448541159261
24.13599657020682
-12.89366132289683
-20.76700597802553
9.524670730699762
0.1900959398036893
-0.1674491529183773
-0.02264678687182386
-0.3203141063043884
-0.03824267241166206
0.4580845632435532
-0.09952778451571864
-11.60824214780305
14.86134552436383
-2.131896034538212
-1.121207341938525
-0.02007817442212985
0.1202009354343101
0.01618515127668374
-0.1163079122739423
0.05812828248782256
-0.1671450243724465
0.1002231930917258
0.008793548810307875
-1.288969300564955
0.9610986919433342
0.4459219587230519
-0.1180513500773892
-0.02152739825314287
-0.1975735283596321
0.1973451663558948
0.0217557602766229
-0.8460654307005459
-0.6283065772973893
0.8609878693041968
-0.9832410935751659
0.2089098606391563
2.554064236627763
-1.779733003711014
6.987741348506161
-17.40877138458905
12.39407755806106
-1.973047522189849
-0.1102964326690175
-0.5327946044924956
0.7482653359116163
-0.1051742987537743
1.575251229846236
18.29554469054463
-23.45917943757507
-0.04483243012107913
0.08996061111185069
-0.02748457488792344
-0.01764360608945487
-0.5117550662208604
0.3196966338765281
0.2269345244157875
-0.03487609204813482
0.4965413473684898
-2.151706540568318
0.6849537456990883
0.1932468051560003
0.06113774329523223
-0.1719447121086154
-0.0824398363217511
0.4946288360734676
-0.0432330049866386
-0.4853255198847031
0.0339296887929047
-0.1024127472126135
-0.4157950575418389
0.3376482350433174
0.1805595697383525
-1.832899127138709
1.796003086202115
0.03689604095525019
0.1112460219329332
-0.1202210630398814
0.0227501601620366
-0.01377511903310963
0.004961003359593702
0.1014611004512942
-0.09347426391469685
-0.01294783988302791
0.009246315568313688
0.01998956926480819
0.1163861229098655
-0.1456220077272526
-0.01971292024216277
-0.07114600908052882
-0.04754596035545502
-0.003776926781754293
-0.2826440617407945
0.06714915359183152
0.2192718349462519
-0.1458424137324919
0.07703153715070782
0.1139357570180081
-0.04512488042276305
-0.178262950698334
0.09320457865968053
0.1565124364789807
-0.07145406440652539
-0.5989289115693994
0.7186130570976641
-0.04612986844079649
-0.07355427698366551
-0.006054810612861511
-0.5155314733075101
0.1026839839998652
0.4189022999243022
0.005193428911788735
0.007018284421879316
0.1536225726452999
-0.1658342859697435
-0.3620305637346709
-0.1838766660798508
0.4373766834495815
0.1085305464047896
0.0005588408673749183
0.1788343115763966
-0.1595920184112926
-0.01980113400621924
0.009362059605650699
-0.1420097653590334
-0.02474571004770509
0.1573934158182542
0.789941811075521
3.87072631659701
-3.8637282481408
-0.7969398792692072
-3.952535665276875
-40.81965974112555
36.53834958246445
8.233845823928377
0.06802355180751822
-0.1579911981153987
0.08015541124956393
0.009812235073622076
22.86942844540612
0.2860030014211549
-23.22058295489585
0.06515150804260958
0.1492842311857267
-0.2026206112211011
0.0445409228773966
0.008795457185112899
8.165813950694654
-9.814103823258639
1.918194555861243
-2.67954164020679
1.094594546405057
1.584947093823131
-0.09931588106089288
-0.04456341858615224
0.03868301557208088
0.1051962840952621
-0.05301458067312422
0.05103845918877219
0.001976121497662975
0.1268614732910501
-0.06492131016545492
-0.2407582338500139
0.1788180707459959
-0.009796564772560549
0.006683715241703058
-0.05839032746213632
0.06150317700418827
-0.01614025235858344
0.09428736479976468
0.008153223486408071
-0.08630033590566909
-0.06710984471856381
0.004089879809834259
0.1668410290226507
-0.1038210640946298
0.02385943390187065
-0.07417538535818274
0.03576030557425992
0.01455564589872073
-0.07334260718299589
0.004519884935250971
-0.009345829598349505
0.07816855185944341
-0.5618725407109951
0.1212948165842972
0.4405777241412326
0.1234331567995485
0.08591957951435222
-0.1758871301326978
-0.03346560616563415
12.51005401184663
0.6999247415178158
-12.72210203360527
-0.4878767198303705
0.1893005756521715
-0.1268565792188431
-2.240557802654196
2.17811380626639
0.3220220342912836
-0.3609219568144447
0.5135283453553238
-0.4746284228048213
0.64972128212129
-0.4444126267269403
0.05824338964784452
-0.2635520450202887
0.2612222182733114
2.207921300609073
-3.713452217282057
1.244308698497427
13.28799818993467
-13.3736324937139
0.08563430376291856
-13.70156016215627
-10.39281829883897
10.27437760890652
-0.2293022831124979
-0.2043121855666286
0.3806516448566283
0.05296282385713138
0.39615175289636
0.2114298466568262
-0.6075815994919972
13.60539005720229
-19.31016291050581
-0.1748731043245154
-0.03402713924688911
-0.1911563420580197
0.4000565856502428
3.342918542223938
-1.008858763767292
1.591365988701001
-3.925425767263068
0.4026268208890249
-0.9994954943884981
0.4817232039581675
0.1151454695893185
-0.02996368877683702
-0.001212264644260071
-0.06542239892691457
0.09659835236401147
0.3733443802963787
-0.4955120842451799
-0.07028310184129297
0.1924508058030998
-0.2667388350890759
-0.09323754262991836
0.255785885421201
0.1041904923239784
1.305473937801576
-0.5261909804207864
0.656980114466503
0.1370433463440859
0.07703199877268765
-0.1114732915619801
-0.1026020535375361
0.2279155693721494
0.3192782563150036
0.01634314426157282
-0.5635369699321348
-0.2479393138083328
0.2221340142918891
-0.002213046566800578
0.02801834611736195
-9.568677105872341
-0.5873377573599251
-2.675508269869013
12.8315231331182
28.06395823563244
-0.7275228232439955
-3.687913146743364
-23.64852226563011
-0.004829054158858334
0.143613459848411
-0.06102339269820898
-0.07776101295929651
8.3089684441339
-2.367191981444239
-1.348308017795146
0.7045009551450213
-0.4102108900733054
0.2491214968311657
-0.5434115618520163
-1.215079347829286
-0.2257448892357681
0.08631888776486742
-0.3513490931389623
0.4907750946425131
-0.1009866411606442
0.03172823577157415
0.06925840539289724
0.348343912457124
0.08748241466848568
-0.4396032538905914
-31.8448568084031
7.011106926720655
-3.593562681113298
28.42731256277685
4.333320104157872
-0.6944641137000328
-1.784016944856343
-1.854839045616411
0.01449589535187356
0.02131336410878804
-0.03580925944859573
-0.1892326709122696
-0.005234918633301529
0.6138753166229203
23.64756019406325
-0.0430112190925335
-0.07365716520030552
-23.53089180987167
0.1922566426713559