/*--------------------------------*- C++ -*----------------------------------*\
| =========                 |                                                 |
| \\      /  F ield         | OpenFOAM: The Open Source CFD Toolbox           |
|  \\    /   O peration     | Version:  v1906                                 |
|   \\  /    A nd           | Web:      www.OpenFOAM.com                      |
|    \\/     M anipulation  |                                                 |
\*---------------------------------------------------------------------------*/
FoamFile
{
    version     2.0;
    format      ascii;
    class       volScalarField;
    location    "2";
    object      p;
}
// * * * * * * * * * * * * * * * * * * * * * * * * * * * * * * * * * * * * * //

dimensions      [0 2 -2 0 0 0 0];


internalField   nonuniform List<scalar> 
19632
(
0.9708724960548523
0.2102158699240519
0.3796891682784758
0.2851215302495452
0.1792104964278663
0.2286228848462364
0.976151277933029
0.120425301210252
0.3905109539905802
0.9006038883030444
1.013170129988672
0.4848744506708824
0.4740114589024367
0.9711199247488018
1.243448383158566
0.01734965711942911
1.380625192758824
-1.099510994641722
0.1639863948228778
0.1895950541982001
1.011619753246932
-0.5700035722068518
-1.256296159599129
0.1616630840159552
0.1700038918880407
0.1354391050844704
0.1702354660403843
-0.1604486011124929
-0.02297046734249267
0.4624211405132428
0.2072853356085736
1.523940421802253
0.9189400545193904
0.1010009679965099
0.7836007947058573
0.3911977972420313
0.1507162391716236
0.2028618062801581
0.1907344109213321
0.9179525276947277
0.1479798942513214
2.731971545969368
0.2683020659049975
-0.9314016886061767
0.1327739391864604
0.1206279858304817
0.1680114824014682
0.2663791580711397
0.5059764520869124
5.92746262261144
0.4959568963530482
0.2491435652178456
0.09746231091863509
0.8779711239473658
0.1684590372907251
0.2347568554542538
1.549355374979821
0.2071278883430031
0.1567241171390126
0.9673308869700709
0.1678623870605976
0.2614966327808346
-0.2135985965771688
-0.2623780742507559
0.270234202092541
-0.1157016407713491
-0.6361685300433766
0.2053916738111563
0.516289013915486
2.443668497472777
0.9631622051481489
0.3844248069215302
0.1008354643532201
0.1700862221056552
0.2015995593607152
0.2003286047164405
0.1162918996538033
-0.5574303021838741
5.132641771073915
0.8661987712234572
-94.47409575010431
1.238540408715902
0.8407013173814006
0.5119065371444649
0.1132421233476562
0.8990025927378797
0.1305045873749215
0.194369286325437
1.485745899641415
0.8529537803692824
1.018988529044468
0.1936808897306677
1.578718141678292
0.8332900992215388
0.2672427528158089
1.019404047006188
0.4492677657674606
0.6254148869379356
0.1339523528293073
0.1959220904687158
2.149534290989436
0.1396684671223445
0.9756939379292001
0.1420358454216005
0.776621690410615
0.9222152071850723
1.092742782680889
1.048718587994409
0.1443851480663335
0.2155049172944203
1.228777412535776
0.1327721983295933
0.8815669527212385
-0.7262320562198038
0.1953992013465947
0.8790914406634848
-0.5230909993873462
0.9570213653317905
0.9082080118408574
0.1195497440085287
0.1424042244256909
0.8077284727463401
0.4327233941279502
0.2697951515907946
0.2469005092585972
0.9695155094185453
0.1749136020826705
0.873211131709774
0.1724164025595502
0.05606032879207189
0.3916292757703668
0.3453608859549737
1.038691102056051
0.1794968350845596
-0.225026814743248
1.146844654664168
0.9280653577381927
1.045765272371137
0.2094159534344572
1.173322247937438
-2.043183884709124
-2.067939639972492
-0.2135243888829656
-0.3444865612511883
-1.883226457205109
0.141025533346155
0.2321749300662301
-3.658226022030404
0.9637163031344116
0.1521124604360717
3.723470313304059
4.24238962627314
2.573966837484604
0.184555803828442
0.1656111216688957
2.762383922362487
0.1457792889071861
0.2652367050231214
4.384278096408964
-0.1461317942907028
-1.451170164633145
-1.739682639927045
-1.12498972674206
-0.4557172244894206
2.27359028757093
0.1801699378371818
0.300064999348184
0.0639125560330696
-0.1438186941190243
0.7583885867334428
0.1085758195867051
1.011320481028755
0.884830089684403
0.2752271309058944
0.2403851217687774
-2.889624419411822
0.2782004459517345
0.9935544378864682
0.2907251121818287
0.2547870429566012
0.1009847868160632
0.2770100648390792
0.2282630053856795
0.1438269023438814
0.1934735434840375
0.1864124781128216
0.3241158627076636
0.1255805601884883
0.1825587131037413
0.2756811960784443
0.1789278824980206
1.066907262053602
1.136562870796945
1.575115734686914
0.1217997124714271
0.3609965763143169
0.8935748187327284
0.9349632127528608
1.933617777455583
2.96139790961772
0.1813920934934609
1.040942619081265
0.1769978801306501
1.358016724401397
0.3531979106946453
1.293089642434659
0.1854354838173724
1.039514972361757
0.1989859303983291
0.3329300807128776
1.461315423413895
0.258574210690574
0.2055844629056988
1.03718065298864
0.3714850674300474
0.1894365535955986
1.05308703854103
0.1499156139305696
0.3940923849292122
1.079748602801599
0.2836552624622872
0.6898912450032522
0.2985686393500415
0.122596586896585
0.3743576970648936
0.08603762988301024
0.2810588595902233
1.155607390367743
0.7850485927762921
0.8285684364185257
0.1364137851811571
0.7914259429138335
0.1853502715734201
0.7572460536643439
1.621576899675036
0.1229892095136549
0.2570628291821092
-0.05442895716923223
1.134653108054052
0.3802127891407438
0.1301974931366521
-19.27124640934183
0.9105838584766378
0.137090072232387
0.4158488084274415
0.146897994361082
0.2547068808925732
0.8699577632473028
0.155475179820515
0.1757071899725397
0.2328982099331475
0.2118295458147888
0.1447183115364076
1.04366737951976
2.069429766468175
1.056836788017056
0.1238511055995305
0.9356495273480593
1.070900353268834
3.161346631454231
1.524563527027969
1.586370550146336
0.0964508688223466
0.6135117409000845
0.5377736440233943
0.5542377729983531
0.6286395847284286
0.8250156238074493
0.5090776841912363
0.1583274665472736
0.6590908442487148
0.1335822886438673
0.2761487444104174
0.1534498172206752
0.2090650647568227
0.2099326940721674
1.069459656321411
1.273009752136859
0.1978105455232968
3.464389837545257
0.1200420497643322
0.5071191405309605
0.6368607740845946
0.4631828177018787
1.435081574092844
0.8422352111237648
1.678556968495108
1.669012665915608
7.672696191636962
1.446445369031335
0.4028859280006479
1.799620036233297
0.2524584236582907
0.1625422883870392
0.1567581739488738
0.1280054543579929
0.1626652815939703
1.577712374412388
0.2400938826822719
0.2133196683010199
1.110568487755037
0.22775141916134
0.3905198866963577
0.221822332743801
-0.3112482834104189
2.443901920361291
0.631992415116237
0.157968186880393
0.2360313311846041
0.1600564512721067
-0.2344462756400202
-0.05992138497000386
0.7787829660304506
1.417089502672446
-0.3630515899388963
-0.3199356629644066
-0.05247152108013163
0.09381424295144986
-0.5550410004680698
-2.902299259263706
0.1461530126518849
0.2450209334554102
3.616641681263736
-1.158792923750177
0.3193104348162074
1.243309787354934
0.1313446543737181
0.8935181051064753
-0.7289665355751768
0.1839894541807785
0.4800010942823731
0.1754051982724888
0.2503063737476685
1.47585333340223
0.1948586171875215
0.2783373766685533
0.3843203429328386
-0.8731817673807055
0.2788585353377725
-1.988496652135392
1.432161680767746
-0.3333540200287606
-0.1692174605270366
0.9302259872342129
-0.01448615290622724
1.00652858213105
-0.2190141934500582
1.487599927019782
-26.96118407152636
-0.2457865837242802
1.507536387934659
0.2947467059464267
1.01457706260494
-0.1404256448326092
0.2327767157511262
0.171612596179944
0.1566492477187562
0.2335357892481649
0.6653306098859668
0.3448325468531878
0.987199979811082
0.09365349954106796
1.180320076858909
0.8268053329544276
0.5102911847419702
-3.651820581591357
1.207381521888969
1.137967350127836
0.1620289049064209
-6.38318357301913
1.121867514235257
0.3242329550674552
1.446432569333111
1.370719670268753
1.456517911518852
0.9056465089633521
-0.9810309811814976
0.1636311884566288
0.1229150417300166
1.535288959222675
1.027581792590649
0.4574601854694398
1.03753127069152
0.2366053379230008
1.007894070540616
0.4242608962550065
0.1886509995114928
2.16492173427079
1.020815770120996
0.4507641151064323
0.4209169883755863
0.9068397259718682
0.8812454530268968
0.3129025407279046
0.7174607020318926
0.7626054121990414
0.7732679034799079
0.728096245955081
0.1051154487160337
0.3841055038424344
0.9613479732443242
0.8391002296172809
0.8665673433720769
0.9641378000960965
1.119332931615219
0.7292216071924906
0.3415472735637343
0.3332484053690589
19.16618479254523
0.2627248122800164
0.9789177672909165
0.4373401888928047
0.7694150363196472
0.5299019695435015
0.6614617861521598
0.9765269490321276
0.8185575087522655
1.143985856564415
0.9795932031386502
4.837116665903406
0.7357827400983376
0.7731711595198825
0.1985444128426307
8.106372823370645
0.2881445658159911
0.1928326064821043
0.3954221242397092
0.2311624359260995
0.1807156444350862
0.7194228837091124
0.4221199704617592
0.3897391281737707
0.3896899459149123
0.3656728214533591
0.3632309342140911
0.3820009623900164
0.3989002847918979
0.5382771990521701
0.5510930028451163
0.4729150180038729
1.577864312551682
1.360536133185922
1.417215851105696
1.70857919922841
0.4214932145803021
1.592590181371588
0.1227158228574561
2.073686481460858
0.6472429898984936
0.7195624517033601
2.283107367870818
0.9118375660001329
0.33579054377232
1.076944222947185
0.8171029226791433
0.9814677651312796
0.149953722205074
0.4695651265559868
0.4774946847119015
1.100147461069851
1.46698451692149
0.8354563311954841
1.483683843038806
0.531052942274536
0.4154154519862288
0.3587572753563598
0.3384387511534132
0.9810713573867424
0.09767868353782591
0.02221972636352515
0.2003557762590839
1.038053862863958
0.8480642849174006
0.4050451860568017
0.3316952654045486
0.9956844871676431
-0.09488620207310362
0.2390973092502951
0.1400725251507168
1.07826641357799
0.7592504287552428
3.82295127381499
0.1866201131434289
0.9995231032509498
0.8506305720839379
0.4349424187319359
0.5950342784123219
0.6413391205858041
0.2443633262567912
0.5632239286609705
0.3153054342994731
1.302078634316292
0.8838395627757728
0.6433179985313048
0.6424256111050649
0.3370106210142806
0.2043319391753364
0.4100396083571524
1.755558637879478
-46.99171248040613
0.8744668372221561
0.9475801123466913
0.360261578267498
0.2719944046815762
0.7660106689105423
0.9738001858523806
1.07555214108221
0.888258736675095
0.9740549892465246
3.12749458982076
0.8025968422779757
0.8324459277688212
1.215401385517544
0.9290420647251154
1.901478772281582
0.3129480204841431
0.2684061357240522
0.8829627393398695
1.259860894491635
0.9413520490954445
0.1138683088941342
0.380220844773267
0.3574500240903854
0.4524209112533405
1.080922749756933
1.181543792048618
0.5120044612450581
1.071279077229059
0.5651667751581247
1.203167542808145
0.5000502683698816
0.4054352688049941
0.4329348392705032
0.3674670679834858
1.068053065822416
1.120068960836953
0.8767333736810984
2.808520981853959
1.450068143828384
1.480549436494686
1.885834873084955
0.3733074058242024
0.3876095612844788
0.3894947970488539
0.7143874218385518
0.5508814241457148
1.093160717117423
0.3150598628913954
0.3346769362391213
0.6371493278956026
1.542236946874162
0.2517841725626382
0.1922128568168463
0.1976643196764744
1.205346764688217
-0.2197018732632355
0.8568992889632798
0.1929316228453414
0.4266709432383268
0.2478091162582262
0.5900380150758557
1.207882451811373
1.109886944440497
1.100177752782338
1.503632887247843
-15.14422295131702
-0.1948002428155178
0.2733216200461894
0.2037923066896302
0.2764724861496803
-0.2005812728257367
0.2029063711630479
1.970667195469965
1.258896671608043
0.2247682421496555
0.9830940478642989
-0.4741557530328937
0.8406675545155521
-3.37109207963769
0.1767969893222167
0.4640541755312367
0.9758824961403372
0.9996287597613787
0.5647476791949602
0.7661197012884442
-0.243556774474111
0.5991580858199053
0.5800944147466057
0.575901354092664
0.6681088540915177
0.7788444043031634
0.4392675783097654
0.6634373687876601
0.7990623938391083
0.2471503989037604
1.135428608413778
0.6552674788124433
0.3587562730122948
0.2815150374008855
1.349481186284563
1.796380766864652
0.4524266262519735
0.199380278966941
0.9286330092422569
1.372195906453972
0.2939432225890721
0.9406977913100583
1.00725854944946
0.8930899697209465
1.490759880869895
0.3009685359068036
0.3070061260626646
0.2992144986841759
1.069549851221582
0.3769492060357783
0.7882681183462549
0.3590297101478014
1.241444649106324
0.5838952382219659
0.2419609996150585
0.243466014732506
0.3670855887369769
0.2980601876409593
0.3088502784493863
0.3004464188719514
0.8466278663636652
0.3230562185237884
0.2835644023854311
0.2376398161321654
0.2012562535421487
0.2947554190389946
0.1844671869628298
1.505589717979056
0.9707365569451665
0.2584148612660725
0.3231136922574295
0.2752249241538488
0.1858364548731627
0.1249365055660967
0.1388265530027282
0.247523924420253
0.3286970745728462
1.161124744452245
2.318812950555224
0.8741686557719106
1.35276067454769
0.2246538593553119
0.4581725417062448
0.3819987857217759
0.2405275774790763
0.8925337131417321
0.2369908903759146
0.1784092463641212
0.1836210231594496
1.079397825241367
0.8952648581909189
0.1886468089188096
0.2005705324617089
0.4590288046272742
0.2145409413913187
0.7010936378869441
1.808155300177542
0.1523051724897727
0.924291439251294
1.046829212254014
0.210607153211808
0.4939521981814787
0.3633543919639585
0.07603873021345632
0.3541087778599609
1.233617447477185
0.2079543958470219
1.492098062349199
1.448108886784191
1.212562196515897
0.5699974135657899
0.945666878302015
1.061750965229945
0.8144577564754564
0.6451223432656495
0.9281592049835568
0.2818200058422607
1.114270186200435
0.3255002522020282
1.09725170097601
0.3355090005394759
1.290112622685068
0.9209864765978691
0.2334399444369327
0.4751566479846889
0.2179018512466122
0.2777331194543942
0.2345301628853123
0.2207576863833625
0.6527102554063076
0.2273221537415349
-0.1859313090896863
0.5754266408655917
0.6019904707420262
0.8655326917621101
1.458071194708153
0.7509886759908682
0.8268714727158039
0.6600425356694796
2.349575814946476
0.2903871000218098
1.562743338925353
0.6214344484588028
0.918910995426594
1.497670628798777
0.1491017764255962
1.550919500443089
1.004838823416904
0.1218024052867857
0.2556251700753449
0.1339820930670232
0.9041218964253807
0.8970017669951937
1.066017490919371
1.546936238795197
0.9599412661568621
0.9322446365765921
0.941705504790338
1.580488228826864
1.279501120777883
1.657974142101322
0.2638222851798259
0.9582553972043515
1.343499672418955
0.6911042934059657
1.290013225723859
0.6389849519238475
0.538483624591193
1.200122653137832
1.179015766039657
0.7578400207217549
0.1994406884868692
1.220426483924908
0.603747888865888
0.786328528764505
1.536073220833079
0.8841031463783248
0.8922661656745575
0.5428867026117403
1.227263571529442
0.5997474102758483
3.918763071944903
1.222570915160642
0.9863945816447753
1.272453255296164
1.725088338464067
0.9426234709564664
-8.989152105848779
5.724851948432926
0.8822761877828069
2.598157964523341
0.102844580661437
0.1866702969792424
0.2125755504776355
1.056499222639087
0.2268196098315267
0.2079024341395735
0.1843017779671681
0.155478456102518
0.1493099941843199
1.236019054497006
0.9362257613481905
0.1485823427355729
0.1695565239786374
0.189475565475803
0.2196784962811268
0.1561121177291156
0.6928098380197091
0.8313117471934688
0.9352436792551245
0.1637773347787757
0.1726673684131197
0.2224704808627921
0.2185112811212377
0.2252874493864027
0.8801378954792213
0.2123926914269161
1.17909780433049
1.23391623700529
0.1839442923882981
0.09714143097181371
0.6470113176653326
0.9302653975765396
0.9851401767139432
0.2115598410473685
0.1972651724577371
2.671339511069284
-0.05841107590438313
0.8635650894230726
1.067684597792853
1.334827562052501
0.1590633706168949
0.951550685617337
1.060089111293393
2.529284588475947
0.8754011474173968
0.5896513368400206
1.116584297760703
1.632775225327776
1.242174798141527
0.9740587842635205
1.27994815150845
2.547956595362822
1.318202213072123
0.849352625435921
2.311398314528955
1.435610930933113
0.9880419314194326
1.055290147148815
1.308928776122442
2.001988883244492
1.518139938238936
0.462414762305634
1.097030810645406
1.972265015803417
0.1733090259215609
1.018501079985334
0.4631593074910246
0.5552069543979308
0.5901333089805053
0.5284942927480201
0.5621493377890256
0.9084444585661495
0.2775431378871346
1.585279490643822
1.778880962533135
0.4884414483063114
1.516160699199988
2.211891744236598
0.5146349165911124
1.390299376459529
1.361213522288122
-3.680417961476427
1.101183777252523
-0.047587521370705
0.5581388013149789
0.6451832817447605
0.780150371996053
0.7415451980077449
0.5504738370083757
0.4169860800701565
1.047452118044563
2.042913185802364
0.5172556153866636
0.4204799807612301
0.4809233608819441
0.2983010437624726
1.844543259982771
0.8238039463405319
1.087309840221829
0.3666806816369262
1.977233922131583
1.706037306145757
1.114474714695746
0.6178757153582736
0.1677361940244754
1.790005441771655
1.583060622211978
1.674001049811643
0.9858250456446773
2.073138783457315
1.892944394568972
1.800244298214944
1.285939581122724
1.035894499957665
0.850634142849392
0.7996300442538953
0.8879820996649048
0.753857562971458
1.312032850133832
1.000546976879177
0.2086232207746388
1.065803240778628
-0.3627347161075039
2.052310847796295
1.872599276967339
0.9840337120151398
2.347915522855375
3.09541035135953
2.343634686679186
2.497873812420431
3.187724932784595
0.9209556156978654
1.174046486585573
1.36245433183685
1.219419932139821
0.9614440699038062
0.8798730654338143
1.210054827073566
0.8458385061783381
1.197349303308449
1.293245692832692
1.054319785085011
1.053924889809516
0.4717927172914249
0.4262088504809772
1.037378250848698
1.135617470403413
2.01278623912647
1.229878259823398
1.062456436748089
2.008825678259735
1.456943956013401
0.2482859815025079
0.2505305429235258
0.2876751240399923
0.2639163808160719
0.8658826520861979
0.3316000769543924
0.5286514598704111
0.845781331991837
1.797903743369811
1.719682566707226
0.1603824971515536
2.06482971875211
1.861286329636009
0.07996130722388547
2.226700559043314
1.482144490812295
1.069818786910379
0.6251186978821009
0.9115875310986161
0.9991189970991324
0.9212281624395217
1.003204729076748
0.1623245423431083
0.2196059617255671
0.1959781424157151
1.334813339316121
0.1903331991994674
0.6022415833085347
0.2054544320426083
0.1951709025771707
0.2171639603150371
0.5265073801882986
0.6038845747389082
1.422050116104327
1.435738567413802
0.8643458082694057
1.025577362552953
1.050569279150622
1.042008651717513
1.040342471697859
1.364968785814335
0.8875356937650557
1.610588379251985
0.6805113674265753
1.359441540416797
-13.73772447166162
0.1763199714070055
1.502778548182828
1.452505748767386
0.780558940111137
1.335871533166479
1.483585514037121
1.473691228467833
1.503899944272188
1.310501609838443
0.5594162972119234
0.6026113824157706
0.2081498331105037
2.006109825650097
1.921898468794573
0.1587611484805502
0.1762520805355055
0.6457010924367428
0.3745536374066749
1.836848540765668
0.4082858320051475
0.1719943632888249
-0.2976412368191475
1.068027692378775
0.4272358951132475
3.31930058394346
0.4110404399669652
0.3914316270556047
0.4157156579017075
0.4364887468843962
0.1855934587698023
1.003751423748167
0.2141993469970565
0.4416423662183899
1.295783955579878
13.2977466102627
0.895355063013647
0.1957799994068347
0.4849904069279333
0.5576372059628898
0.3056900240958844
0.5240274598672409
1.097445990782604
1.182189767204035
0.3757836607703947
0.6854006389816069
1.074125455521526
0.5212080344107973
0.4061707257865372
0.4058446637605107
0.3446591098250913
0.3698521492080442
0.3282591326024216
0.9663385653311535
0.3489593378700339
1.091701074430949
0.2830156133304489
1.31739770453061
0.3314145528284046
0.3433917171593424
0.7153127558261655
0.9237386705903983
0.9109430390537449
1.159293112452294
0.9581937027401676
0.6904130969001842
0.3373399794029435
8.543090613859814
0.8725540944506158
-0.1343635790260735
0.8937753178791197
0.8842523341154714
9.163516474471622
0.8278012057839601
1.118924053954597
1.288360709232336
0.7648486631087955
1.051882946661869
0.7630298046075904
0.9175940200235669
0.8173303065241854
0.8427695766629779
1.280977373837096
1.370628265971475
0.96144469222218
0.8387931443193818
0.8950029086534032
0.9432092612129311
1.109664388707334
0.9364234121463461
1.019706578851004
1.080353442675694
0.8615732852341084
0.9211384832881563
1.262619215798206
1.184562534401339
0.7952560665063727
1.446334807798707
0.5465872532636868
1.089905099437063
1.013408499401682
1.170490463718644
1.205598769515885
0.1441607798088341
0.8239462960754036
1.062880886327538
0.7452527983132757
0.8438189308248524
1.42839658453122
1.136128321289388
0.7845117766606048
1.118126348312613
1.317559970063398
0.9529212621417812
0.2031750427206176
0.2213326884903893
0.2322713219480918
0.2442996953131704
0.209551046497272
1.658872818069564
1.041624793094837
0.2712371400036227
1.285321098392971
1.069339534999247
0.8303597100961054
1.266444304534034
0.9753358423821037
1.298082876717415
0.8600351543156008
0.7720329385845019
0.9327637570165139
0.3946921832084033
0.3237272450343129
0.9908679721831538
1.152031955321989
1.33248820358071
0.3612741915608459
0.3937057076205394
0.8738049210897062
1.371040749475818
-3.073099799366924
0.3635618347220158
1.293799359623881
1.576027559711123
1.354500935828044
0.4759306543587309
0.2230007548024085
0.4306788584194135
0.1870744203958897
13.4435982653906
0.7747819709603674
2.153324370664953
1.526137894989895
1.159215165715998
0.3368859563818376
1.570332684797606
1.799612692669786
0.9285116694946386
1.491287155627327
1.421914435373152
1.110118361396859
1.214467756005235
1.142068138711519
1.520408109475224
1.423288534600866
1.102649185966706
0.8034779149095043
0.1373275296681034
5.170696718293339
1.354679823152476
1.23682936812472
1.411258432936503
0.8644272270335778
0.8148104693232258
0.3802202987704188
1.17848366279049
0.9212980827592397
1.12578718389366
2.252943990073963
0.8211908087593722
1.112031281901044
0.938587842595768
1.094785566212281
0.1420489883422619
1.275710477902956
1.222175357183558
1.122776198018032
1.213651834674428
0.9555018141461686
0.9241292621903835
0.9747126852577929
1.005331606383686
0.9803793307287343
1.357864230313138
1.087227601355428
-0.2097723424501899
0.7582224279156206
0.8310730429814923
0.7639270517373877
0.5259298239791371
0.7059840146723554
0.8141586018792273
0.5186766296148809
0.5217502797211951
0.4929789181909364
-0.7915132839898955
0.4789568946268177
0.4409894099863652
1.428297663036632
1.467832159586132
1.532470626230829
1.705845021913399
0.3795560394413555
0.4044115657445401
0.5373412853587254
0.5314209100700632
0.5164703933586255
1.728495286706729
0.241731444029848
1.603615544039292
1.110264955148632
1.832413784392924
2.339605937899671
2.138108454895137
-9.244307014473144
1.484801807297941
0.8613139736753662
1.045328843189634
3.443165033647112
1.315588246351405
1.391425752473564
1.164074486191834
1.424776199310744
1.506104152154788
1.373830968361855
1.443730828241707
1.250509529036326
1.58883999293575
1.283532327076244
0.9390825898960156
0.8926681457625851
1.489529357623495
0.7460062412610794
0.8553418420483571
1.032880955077689
0.1644550783303496
1.075863037602776
0.1791921500888597
0.7497626300826874
1.257367526203259
0.1621609329463783
0.7797258582384909
1.314577075399076
0.6001249700539195
0.8336326069357898
1.241252853238821
0.5056798940408017
0.4711695751278545
0.9886084921583589
1.071383286469144
0.4220750665420731
1.071315643262123
0.8950528392647212
0.9506993799547362
0.926844979976612
0.5926510050656685
0.4439137646185027
0.6480011015092323
1.328299519036765
0.563178251774838
1.506761050273761
1.181462598829588
1.456059758771785
0.8122668738793393
0.5918324889187735
4.808259890414462
3.356592786943655
1.140808363047296
2.026957466839221
0.7714934277323389
0.1196139299843359
0.7944291044062376
0.3385885547546062
0.1639148464457624
1.508205341148617
0.7642638021512653
0.4789445755097742
1.313069631017461
0.4654418249281101
1.011999272177165
1.371899747370923
0.6405740166389998
1.044873382566808
0.3577821771948876
0.5225695707408373
0.4108917553005315
0.8902970429124236
-0.3885808610329251
0.4945902834723893
1.074747339785328
0.8313118928803057
0.852244146724437
-2.622408147149508
0.6400962629927618
0.4040601543983658
0.9463769262365116
0.645777226519774
1.16386557203414
1.183634233943179
1.272005397880148
1.089126573829271
0.8525162826303213
1.194487719864608
1.302836684781315
1.36765243583716
1.028005886818681
1.699753157501896
0.8154628447068065
0.9560841715577234
0.7053106392665374
0.7935488240639972
0.8692770627497767
0.6524418605035843
0.8666384626404192
0.6891723957369577
0.6385195866518385
1.272916362067874
1.289373143592131
1.095081146761657
0.7323194846062112
0.8915582094251753
0.7995280867701198
-0.7431389535101263
-0.2783448326103771
1.325692496056263
0.9180443411060804
1.177729236679175
0.8946269173485533
1.468745507982437
1.24160576965451
0.8532247047798029
1.002143802917415
1.270442795168826
0.6664464693785355
0.8193021501948518
0.3549928885605997
0.2521175131582135
0.3534736497197952
0.2666494021011517
3.236514252719294
1.572152754931151
0.5529711361843657
1.622273483733115
0.3300138428239098
1.215097803331407
1.356596419261131
0.9408687938734508
1.397794328837531
1.035917180064568
1.133025520725161
1.457558094972099
1.430413403252327
0.7471754291095574
0.7073885457992339
1.032237467624651
1.479803388082037
1.432431475365153
1.927633886228117
1.580313627322132
0.7108727367891678
1.308672466665961
1.141375260631368
-0.897336190614066
0.9744218473191646
0.7369019632912436
1.135994494522172
0.2646446530961695
0.9689357210394249
0.2674878003273145
1.076616395878093
1.023452591708781
0.4937468126110142
0.3430958956880291
1.181112656515192
0.8601777676366876
0.3519202731638769
1.14478414863702
1.267368247639159
0.9217929140512231
0.5084370852403213
1.238911039499045
1.069942949445139
0.9984101697398109
2.073329914137183
0.9055230068598955
1.336813375224958
1.235438340122758
1.215835485283847
1.096883923873286
1.152314337581796
0.8004982063017747
1.736135031864933
0.2605832033557658
0.8717949975568619
0.496048135254015
1.217247837745586
0.7427710558425572
1.141711385797461
0.2821038727372409
0.6975717613272502
1.007697821617605
0.8190794966181321
0.8246312354664141
0.8443106575485192
0.6093524405856826
1.153954172535451
1.078573630401424
0.7952261014372273
-0.2920806304395957
1.447592782689106
1.029163819758731
1.188672954687847
1.586056807943923
0.823401202452492
1.395322062207693
0.5798275988331698
0.9186197022359802
0.6027711201945467
0.6594766761028448
0.920451018212503
1.971877923942454
0.8326427303483147
0.8264503356345945
1.468607538236762
1.008809634579682
1.045153249345347
0.1733128330890633
0.2135555074439248
1.083806780863169
0.1089325294030086
0.3306593864924349
0.6707599783232205
1.141269932420015
1.01917173645293
0.7953674113884937
1.057382760363718
0.3751420335739112
0.5035482613999559
1.03806988916333
0.8690304577274011
1.492296199210238
1.274742367480175
0.3465379591024342
0.5943874633152494
1.081324963191401
0.3386967308648873
1.238320070829215
1.037152209700843
0.69237723188992
0.8891620311204849
0.9916807525381522
0.7655276714116986
1.01869091680798
0.9638197472809633
0.9439690364140551
0.6201424970572582
0.9719073833979928
0.9431486875098185
1.34361280891736
0.9485116602207406
0.5632777742919793
0.4683398640310888
1.158533004861944
0.8240780744377121
1.256741874374356
1.080032975753735
1.322895578571407
1.319541228894275
0.4225523890355733
1.670736208715124
0.7888147949309997
0.8422021012820199
1.668055421500038
1.225575258958196
1.150741778376447
0.9006308919972974
1.255299058498816
0.2582626447590994
0.8224039236742985
1.279217985417854
1.196083653182256
1.322658694668284
0.9538902486564783
0.8496231778491489
0.1712512022040782
1.571409258786877
1.152930599008061
0.7275251144828094
0.08239334181329827
0.7280453409425202
1.009556162356827
1.039784536593192
0.8602610422510193
0.829774844564407
0.8233594822959612
1.263579328939083
0.6396494667888841
1.179659076410535
0.9349830444620106
0.9228796678703227
0.7310067921211921
-0.01905883771499142
1.283836889457162
0.5232184630285487
0.8179467756624037
0.9057729273358064
1.172693695320125
1.23200586228922
-0.5373442046672223
1.036016445845215
1.32375166826727
1.291717718394318
-27.4469541693262
1.63329076006248
1.408686813238956
1.140969299718854
0.5294192930126357
0.9630376108729549
1.121919921310002
0.9445507173005896
0.8870561561203348
0.7977216716153682
1.107289783385004
1.195628735757949
1.501605179806828
0.9445587868168103
1.035756915190788
1.093093052726394
0.01708945787375168
0.8540152265526766
0.9725849845196581
1.396658063664526
0.9403462616809497
1.182408250492027
1.010187124227749
1.009701117081319
1.428161702967031
0.8514078141205534
1.385908822316956
1.305732080201492
1.521455867128851
1.253341739405486
1.315236206584051
0.9623094126291466
1.467408418622758
1.051632820330481
1.07018824195613
0.3264151591657271
1.078207209597603
1.006894728007694
0.9368439984095928
0.8498730061345886
0.9938326625611164
1.395738774547923
0.703099131637303
1.560725834606948
0.7548601419339731
2.922660125684846
1.423024619765888
1.217094671520384
1.398157681289046
1.173954864013406
0.8580144779418764
1.067708161389881
1.046317207529591
0.8084475781150543
1.429065392629024
0.5122074100571422
0.608628184227156
1.313122643517859
0.8477848009828582
1.079105464788543
0.9873748376254134
0.9655966903125892
0.4792929148383752
0.5452204134292341
1.054062281980422
0.9800262841560975
0.7625809557577479
0.9543869403196311
0.5893655717753726
0.5313576530645374
0.4077451455144256
0.7571257303111262
0.5840310395203737
0.6273006927422432
0.2019865118579231
1.472544408412311
0.795484397677635
1.074276852614362
0.9761269666178882
1.459701021726463
1.282101038696799
1.4145651496543
0.4920418648017211
0.8793136131995024
0.7981042638717523
1.115672964504896
0.8645370648290658
1.1196284530645
1.290181367803663
0.7494834135034343