/*--------------------------------*- C++ -*----------------------------------*\
| =========                 |                                                 |
| \\      /  F ield         | OpenFOAM: The Open Source CFD Toolbox           |
|  \\    /   O peration     | Version:  v1906                                 |
|   \\  /    A nd           | Web:      www.OpenFOAM.com                      |
|    \\/     M anipulation  |                                                 |
\*---------------------------------------------------------------------------*/
FoamFile
{
    version     2.0;
    format      ascii;
    class       surfaceScalarField;
    location    "2";
    object      phi;
}
// * * * * * * * * * * * * * * * * * * * * * * * * * * * * * * * * * * * * * //

dimensions      [0 3 -1 0 0 0 0];
oriented        oriented;


internalField   nonuniform List<scalar> 
37377
(
0.0202497841237094
-0.809807144148708
-1.449682901152362
2.239240260546985
20.62932411508882
-4.660631186075311
-15.97340937408015
-16.58384082348125
8.236144489934713
-13.26956032335313
21.61725665679334
0.2237563843298129
-0.008833401693176637
-0.03859145474272419
-0.1763315278137792
-13.88150200595962
-12.09900030406483
25.97624150581751
-15.08864948516125
-30.31406330408349
29.14426695447279
16.25844583479973
-8.49920773429106
-26.88201588359911
23.46538838091259
11.91583523716672
22.73133721897968
-22.15726194229002
0.4926027781854363
-1.066678054789866
-11.24644042290814
-5.807978021573194
17.03666422408819
0.1621507072088239
-0.4903918848998551
0.3949592029703061
-0.06671802505701524
-0.6970673008072241
0.5585982264968355
-0.627546207242569
0.7660152815071311
26.67302232334013
-24.30821172180061
9.169123480183357
-11.53393408133892
1.50995033149162
-14.66335359918403
-14.27493870520925
27.42834197301727
-10.11487462404903
3.645046853774996
-11.77424547725387
18.24407324757253
-1.43161639622906
-0.6542038896882203
2.212431677542358
-4.446503350337508
-9.733469993157289
-3.612204721614142
-16.97309824983684
14.57200976521305
-25.51624528069919
27.91733376542161
-15.03317910790562
29.99106942375514
-14.93532812061764
5.329250277375708
-18.77267120856314
-5.074185654792443
18.51760658605515
-19.6017283840816
18.71456295147087
0.8828095040620735
-0.8235780912814947
0.3086511743256735
1.126846022989959
-0.6119191060640553
-0.235503093547367
0.1644418275771372
0.2069563007572484
-0.1358950347216467
-16.20590344708586
20.76397271320737
-2.708336770721814
-1.849732495170476
-21.67227733059355
-14.96633258313127
17.03688152965227
-4.70768878362558
15.80790431248199
-23.88336106396763
12.78314553513152
14.85378406665433
-11.62202249031037
-0.3818429113125223
-2.849918665019847
-17.07722829303477
-9.009910402081289
14.65249936392387
11.43463933122821
-0.02794056703466547
0.01619385782804
9.771033280282154
-20.15281994636766
-8.326288822696666
-8.435929744340307
32.58791008660305
-27.42542182096104
3.273441478724619
39.65063587905026
-16.64334779031741
0.8287772165622965
-23.83606530525267
23.52134442825047
-16.25999225365326
4.197440737174988
-11.4587929121262
0.1597097289325347
-0.2652906116753628
-0.4820790293048938
0.5876599121979329
-0.1198416805265315
0.0975778017558346
0.01461907363825159
0.007644805183513258
-10.2010189483801
3.528919190045607
-11.98465047634161
18.65675023523185
-30.54925415758458
25.65809969059448
1.541104365702381
3.350050101397062
16.61379183723561
-19.00647595272587
-17.95908227998918
20.35176639548217
-26.54632090941162
-1.133509567931688
4.124383027830921
23.5554474495281
-3.484579647157371
4.926980014510529
18.202346605123
-19.64474697244165
-0.9418426631111684
-1.524116961057809
1.353616039671928
1.112343583923537
-11.20047651361106
1.991104760131512
24.96277316095892
-15.75340140748571
14.35344503160137
7.223589703536677
-5.976797229904069
-15.60023750510447
7.332828292812603
19.98618659984893
-43.16007696872325
15.84106207608381
-1.065295468617948
-16.97795644473648
-2.305397863720623
-12.72514519955697
-10.78865722854233
-15.57736822073377
39.09117064882859
-18.92859771408656
28.60060691508091
-5.723757236064918
-3.948251964888251
27.30594378805512
-27.17481745868325
-3.792552626849103
3.661426297503507
-21.60203186209
-16.48550947952888
10.13216530267226
27.95537603882842
18.69064847555469
13.87510124714156
3.12275990982445
-35.68850963248968
-19.79470819257961
-5.942245387439363
27.53596303382136
-1.799009453504168
11.39671747611014
-20.40820315620498
9.1316273325818
-0.1201416525055846
14.5360944527216
-17.47164523150404
2.92864226194181
-23.28603716253051
11.34009684792867
11.01291248391875
0.9330278306901292
21.60764968599075
5.115808099943708
-2.027771786420873
-24.69568599973901
31.08047894430098
-9.227142552762976
-0.9755825559742777
-20.87775383542668
-2.980238432241252
17.50922226271854
11.38936561048537
6.593066072145231
-18.84565194767555
0.8632202652966944
-17.49526081366162
-3.565953719353949
21.05630519668385
10.30873391758033
-4.125187774708423
6.465455399110511
-12.64900154193469
-0.4842267222366863
0.06366519295698515
-0.8968855068690363
1.317447036270067
-14.70036173766117
-2.097722454816513
16.7923694153556
36.61705683705006
-9.075394423748875
-16.75256566153755
-10.78909675173106
0.02469502832194738
-0.09655528482690763
-0.04798142399140649
0.05255596032831713
0.117999809284434
-0.0729779678134707
29.20542156192829
-20.04832501491105
18.48133809459596
-27.63843464176693
0.1338469570088602
-0.1203586761205598
0.001130792776256316
0.2096436786518466
-0.08780634793087867
0.04260449687243473
-19.93588357801521
-0.01492980654433371
19.94545592653593
-23.79143088234199
23.95248789772938
5.845498663170695
-6.006555678663919
-1.426009681045198
26.50459576874227
-10.80501471157718
-14.27357137580359
2.289869832264378
-2.216681136798067
-3.681227719735911
3.608039024005072
-0.1207512697295206
-17.29586098747862
2.518777487384805
14.89783476959495
5.830401250875767
-27.37588380287457
-2.31465555316419
23.86013810518088
0.03143896527726951
-19.97183370096435
35.22311719554104
-9.107665700622711
-46.45873549017662
20.34328399531303
-7.22891948947218
-4.34892125908981
32.35562069318387
-20.77777994462418
-23.04720384684834
14.85851649083401
6.124433748507117
2.064253607464551
-17.00304783522101
4.166681666542735
-6.29440591389803
-18.18117388155785
-5.518991485340533
18.62846385234648
5.071701514752274
0.8108892755385702
-0.5503841763056906
0.2057756845716093
-0.4662807839896508
-46.49034800372168
26.25555021821683
2.637626889257962
0.07200176920781261
-0.118084264369124
0.0280441551088606
0.01803834005491106
5.424324368343618
23.7101449022364
-7.635585419717603
0.05387885571245229
-28.55522327456122
25.78390444867932
2.717439970283206
2.404151676538211
-0.4005635545768519
12.57312349071168
-14.57671161266653
24.34646133684287
0.2742186429405077
-5.629285832568417
-18.99139414707068
-15.86230214433873
-0.1810324464918027
-5.628942739733045
16.45060743069383
-18.37589010668733
-24.62103823340702
11.78252846478355
1.860896079737717
-15.02861920920167
1.38519466487326
-25.30365983804598
-0.7567495845414507
0.8551066787084354
25.20530274390697
0.8960786150278398
-0.9444041266004209
-0.3279584458739281
0.3762839574296797
-13.12999395168359
0.2293321842744717
12.89560925856685
-18.25250008164186
17.23438083038994
-16.94411627905137
17.96223553045531
-1.724442382495584
0.2456062684203889
1.458120297499755
0.02071581614410529
-6.388992683140103
22.83029664502115
12.9990083117529
-24.85833810556242
25.27181841566847
-13.41248862243787
15.69318760393098
-19.43514137230741
11.03204919753754
-7.290095429132522
27.79959507069118
-13.29585780060366
3.686768622044721
-18.19050589177638
17.66321523769274
21.87005790930948
-22.27141082693867
-17.2618623200043
16.74062500522466
0.916847866540736
0.1495242737580268
-0.002876393521202817
-0.0869434681349034
-0.05970441206295771
1.838393239628409
14.10657325809659
-10.878133375056
-5.066833122658485
2.802367767763239
1.384308228390911
-1.430869815182976
-2.755806181265938
-11.62925502207105
-5.975037570043741
-2.617538595865365
20.22183118804686
0.01066810692931339
-0.1247409588581475
0.03264708977215668
0.08142576220868297
0.3489317680909553
0.07018904763580303
-0.4157374281298317
-0.003383387609736763
0.01504970706125848
0.5958826239120747
-0.6123501257716525
0.001417794798847705
-0.7680584036118949
0.6930701795256999
-0.6004034252839231
0.6753916494092623
-26.03681136437909
14.37395946614049
28.40347690351827
-13.88171712054526
-3.597540103845557
-0.02879807153155512
0.1541260897508579
-0.1256277874801864
0.0002997692699697611
24.21823590535692
-23.66479750639484
-3.533676831192489
8.003154498022372
-13.55413365522545
23.73727327121009
-18.18629411338645
0.01831701485546198
-0.04624465105624589
0.2375713148877227
4.279861749112274
-21.78078947368617
-0.3107477823281553
-0.2449584980103716
0.4150817922156093
0.1406244882035219
0.0179068283972613
0.1684960889493732
0.0831201973377399
-0.1272006152534819
0.05181413689892474
-0.007733718854300059
-17.82911087887442
17.46541630208398
4.35997511938141
-3.996280542699569
-15.79600847712872
23.3098214082996
-3.529360896389345
-19.78339930511203
4.777916440900813
-19.92579397156451
1.998866149309804
13.14901138013368
-27.2845048311929
-0.7367685827713121
31.63566161319291
-3.614388199160332
-6.566742085342717
-23.89394017303944
23.80541116078552
6.655271097660568
0.1044158536272716
-0.08204265395553477
0.0001322049853852912
-0.02250540454199285
0.5074134508590272
-0.7265137957960054
-0.009020414518601274
0.2281207595030027
14.90496585242684
-0.1732124308737882
7.223137899937808
-21.95489132146824
-0.4583961658059574
1.094633338563171
-9.369520666083687
8.733283492722181
-9.646330633358824
-16.82991041701207
19.71315698224461
6.763084068238837
15.5490052822625
0.1318738595240991
-15.56777300311919
-0.1131061386573999
19.79905066169817
-24.22826735464143
-8.440873326313051
12.87009001922338
13.15153405124629
18.19192478066075
-7.802678405267672
-23.54078042663087
-0.209094455503493
-0.5417586771140771
0.3475595106841666
0.4032936217796976
-7.319268737932862
11.10721056800862
11.6095389406696
0.5957025650842047
22.5642577528155
-16.11272347903299
-7.047236838897114
-0.09150705784142771
1.432108630051425
-1.332365991250193
2.415163352757544
6.051266019142292
-9.71883172047429
1.252402347968068
-24.77351777295619
14.33435612756581
32.04681133102018
19.06297850238933
-8.149315037117903
3.991302387169989
-6.810739356809543
-1.402415967158253
9.518176392427566
-1.305021068968652
0.1050955239608147
-0.1178121742412514
0.01271665029601852
0.06601526456805526
-0.1458163220562058
0.09494626235083793
-0.01514520481176425
0.0894842305493337
0.1007251517336418
-0.1343569045279206
-0.05585247770196936
-0.07200368672947088
0.1135774892261776
-0.01687877412921
0.1230023523586193
2.899924463341626
30.41627082696357
-25.1698889609543
-8.146306329387336
-5.80174973438183
2.667490100229281
-19.42315873794865
19.38992614770454
-8.0425022628474
-8.634322144790886
-2.7131017400351
-1.760126982145547
1.885170450230592
4.450185907948242
-4.575229377154817
16.01151554564366
14.20127748967539
-17.09318291807233
-13.11961011721499
23.59302901431024
-8.345855961949388
-1.046486681704494
-14.20068637042047
14.4021394764426
9.117751229695635
0.0731383084073111
-14.66901910472544
2.953642000708077
-4.566630553065019
16.28200765744644
-16.93169956294549
20.58164204574725
-16.37508768235175
1.700853937363131
-10.37420209222945
-9.309504207603496
15.39060572443928
-18.15751684178293
12.07641532510703
2.760034656711949
23.11247299260659
1.185351766084467
-20.44245481047459
-2.436832697051318
22.87186183502475
-17.3664139687272
-13.22035713584535
5.719721817173697
24.86704928757533
0.009978219607836111
-0.1133938289280794
-0.01694306678235162
-0.1349351860180167
-0.006535240157660242
0.1597874410589719
-0.141620230516144
0.0727003090707098
-0.07722414973844939
0.02089205827643026
-0.2446371167825264
0.01521053834577536
-14.35579184567194
21.61032069591927
3.087882654028934
-10.34241150410003
10.48818635461071
9.282023740376621
-8.59889173504587
-11.17131835993625
-12.71263013447518
15.227273099387
-19.05343238249569
16.53878941760043
22.29277697002711
-22.3972048905359
0.04541063573715017
0.05901728484512738
-0.1372709390853847
-0.006641025947441852
-27.08337747763692
16.40708253977849
1.960123576278892
8.716171361735404
2.305735592711553
-26.31389681786079
3.159642066362585
20.84851915879369
6.163581467667657
-0.9939100049845642
0.3432349913533324
-5.512906454498664
13.12716254266699
18.28883402879743
-17.10754789981457
-14.30844867164527
35.43826321542467
-13.27900822564489
3.240083181320673
-25.39933817104261
2.377609632085678
19.67712051702101
3.507461530880924
-25.56219167991896
-14.12757409602708
-3.132871925573942
-2.520832289756555
5.708387228740211
-3.113974453739804
24.15918632518983
0.5120542977721363
2.399080226378282
0.2225386973464671
-3.133673221946024
-20.69451715178256
23.99538786389639
2.40751651664074
-1.011869275250671
-20.02138396883939
-0.1291963024485578
21.16244954651538
2.420331452099048
-13.07037174513812
6.67098749071245
3.979052802356781
-28.48471466954651
28.50826554046196
-1.03542014620533
2.508703471177623
-30.35234133008931
7.822253890051346
-16.62886413911957
1.089580334657928
15.53526700706583
-2.331138337086124
-19.24666980860998
21.57233396207928
8.105721463589498
-7.848851939165042
22.03841897520592
-22.29528849958869
6.160891641812683
-12.13431926920389
-17.23319316645494
-11.56424660474665
12.07791333100007
-5.432473990990939
4.918807264760859
15.57302330558327
25.14568153707177
-44.84015266599754
4.121447823426665
-21.63095747990474
22.68645367808661
-29.54021086780975
-5.532948218203195
5.544281219259914
32.45976010382459
-32.47109310480449
-0.7147972351060293
-1.129099815828069
0.0246076448974742
1.819289405794814
0.3783760089861802
0.5877785475750601
-0.7182547750892794
-11.6801652573592
-11.09192373596261
22.71715210200056
-2.736020174903664
8.186390688086302
6.684362480185802
-17.09575689807997
10.62391751164457
28.412554064108
-21.94071467784737
0.5688695394155584
6.659862925995543
-7.687128631474873
-0.2650715316568175
-0.1584992658814649
0.1899182599116384
0.2336525377508999
15.14004108246643
-8.370984319067993
-14.82826712743501
8.059210364084304
19.05905348623705
-26.33431415274616
-19.09760695339933
26.37286762007488
-4.196075733008333
18.6823018316959
-14.49198044568309
-1.886719637342883
1.67018098870192
-1.300620239880059
1.517158888331968
0.5017224396071148
-20.26440358376796
1.318500944466083
18.4441801997488
-3.786287409247369
-20.33620726297334
23.87251462925039
0.2499800429319783
8.015612804857092
13.75903497720028
-10.02817348453406
-11.74647429751835
-22.84999687634514
11.12334961456519
6.786183362283403
-21.17707178023131
14.21767598708425
1.626171062366966
21.99856207268203
2.440662530867472
-26.06539566588675
13.0312983607981
-33.61396916793626
18.08768081503577
2.494989992126865
-34.73285457947485
-2.049855908636045
22.57582652290698
14.20688396503251
13.42831862216644
-12.68212790814713
5.266330190243694
-6.012520905035524
23.73789375742633
-20.53899097166016
-7.226495839974714
4.027593054249723
30.25967658199022
3.401298707364039
-8.726705715463723
-24.93426957384618
-35.10690298220165
24.85711470024799
18.41651101700892
-8.166722735715357
-16.14609286882286
24.52303693616953
-8.393292240137479
20.76951707950672
5.955443179628729
-19.50182235919025
1.155595360785445
-7.140646423015309
-4.769974475814077
10.7550255368532
14.73957113801652
3.202459844898735
-15.53164705495982
-2.410383927930086
26.04378733871787
-3.587443246095713
-28.99394947454713
6.537605381951051
-28.78242273517481
19.73474828127328
3.91133056531322
5.136343888798462
-3.334908830689034
-20.35686044331182
3.292513632631046
12.49749120414873
-8.306740682418793
9.693931034064203
-13.8846815557378
-12.19768113412402
12.15016648073628
1.570372911327179
-1.522858257828306
21.4337943014878
-4.283571226946103
-18.40601840674093
1.255795332223904
-0.5523755482801723
-2.442226619458863
-16.46643326967263
15.12967974598317
4.72100345074467
1.336355047011701
-21.18703824371596
-17.51855557203069
11.4035307830413
6.584160200534164
-0.4691354115570084
14.98769050995291
-21.03363752638895
-10.65525806543261
16.70120508201765
29.34225123453572
-8.903240783920701
1.373383290413125
-21.81239374107822
-22.12372540676212
-15.03704732510124
10.75940112756749
26.40137160438287
20.29223598088575
-5.441725057788608
0.2791688228986706
7.601334525971022
16.39321893700818
-30.3026851480681
6.080547892747561
13.85710942421948
10.36502783112389
-11.1261808028322
26.46532027290392
-0.456317435971353
-14.88282203372862
12.64084312527299
0.6920093526997484
-17.76538564403517
4.432533165362582
30.74912604929569
-7.221182444246582
-21.06638427297031
-2.461559332073074
12.6767208241038
8.449949885675784
-0.5629234702974288
-20.56374723951442
-3.306593150574835
-1.228446887791395
-16.66159014290595
0.8292255818789297
-5.173417617308002
-1.431948355076071
5.776140388657634
-1.253508499515757
-22.11960704142512
22.88689719575544
0.4862183453217421
-21.6473131866784
-3.430095153553704
3.667766186485746
21.4096421537649
4.662494957945762
-4.710435874783974
-18.44711775937473
-2.447087703495935
0.05252548848313603
0.0331273737220007
2.361434841017089
-15.42292134202582
12.05689720278424
-11.80551461315821
15.17153875243429
20.10332181669247
-18.44657725141311
22.66749064111338
-24.32423520633003
32.67849754051309
-12.86002038551916
11.26200178937883
-0.05369953909840269
17.57026356974088
-17.52363119604221
1.924664167003174
1.718742263355542
-1.806097371109478
-1.83730905941777
4.26609271377631
-3.527416926676871
26.00604787007922
-26.74472365711904
22.60735284611845
-23.33793532182072
-4.830754358340421
5.561336834101713
20.6003327150637
5.654355604259328
-7.03729673308712
-19.21739158620965
-14.01469816767401
9.110552309853727
14.1155893211673
-9.211443463331689
18.79750729059771
-11.02478970426678
14.97143640216061
-22.74415398845999
4.265621747115657
1.238848682822313
0.6591110373205308
6.455784415319423
4.786398111243996
5.962935282164719
-17.20511780889464
-2.581432656294072
-9.840953038600912
-6.683133335403695
-20.47887501235399
-15.267780858215
50.12061533675829
0.01897523750867545
0.2789057859999335
0.3069550423842643
-0.6048360660417629
0.6276007530481374
-1.347998474693539
0.444651379527425
0.2757463419086821
21.53004581956403
-27.64241845950395
-9.377006986741904
15.48937962665576
6.68784345293987
-4.777319927419769
2.481150382531548
-4.39167390856266
12.68933708326246
4.655558546002448
6.52067655633509
-23.86557218594427
14.99716565349008
15.67612037947887
-15.74621723953901
-12.91875797298512
12.25898695078182
12.7939726020128
-12.1342015799205
-22.90551204424394
10.47472447241617
12.41537806318617
-21.95330100582856
10.02159470541295
-0.9870516726364595
-8.942951449964209
-2.602802790894588
23.80474119170632
-23.58312810888663
-0.5291115638167312
-0.5987608023402786
24.71100047539651
24.43336947928848
-5.427291428077393
7.006549181250569
-26.01262723243792
5.874010177088789
15.25827792135958
-21.29081968739653
0.1585315889829315
-11.30589281874634
13.19663550659997
-19.9186768130207
18.02793412500049
15.71642192086454
29.439085933538
-46.36869060491368
1.213182750542209
20.53279029656789
19.5524848923749
-32.7524468961149
-16.73244816289632
-0.3181936196235868
21.31673449633407
-11.09448765795205
-21.06392314362562
25.58170744149048
6.576703360241901
19.9794868928951
-1.35017144712926
-18.63674044545047
15.74961018736208
-0.6621491827936471
1.618166204385743
-16.70562720979315
-6.094997096562524
32.34469269852494
-22.44886118798149
26.46487732290552
-15.56453480213013
4.596472833371415
-15.49681535405045
27.94658396124655
12.02291677989331
-39.8731232442459
-0.09637749650212409
6.0120988356502
9.47564285136637
8.444999776746792
-23.93274146373033
22.5856539929812
-20.78374611890044
-1.813832661280098
14.88734168984163
8.939826652037022
-10.40086117473946
-13.42630716703995
20.46063772167166
1.900653639948982
-22.29976526317514
-0.06152609865053773
-0.04983781405492589
0.08528496577425539
0.1347021124884934
-0.1701492641473926
-15.76110022183721
10.31138606677705
5.429214844432785
26.77704810476596
-10.63911250636892
-2.200835539114889
-13.93710005960174
-9.629552717603032
-9.832640717247491
19.39862112287344
2.129155001029806
11.23108423595404
-16.69476403893731
3.334524802028028
-23.3155270275608
19.74746424724946
-14.92298472791509
18.49104750835942
-0.2753045236943514
-31.52886686001989
7.792377715464528
24.01179366820051
-16.21118280315854
-12.64414289353719
-8.259788015987713
37.11511371261245
-9.164503900697289
-32.39763162749237
10.62884615703553
30.93328937118967
-2.948851530938071
19.6243670302965
-17.65067520735342
0.9751597079774421
11.99413515318297
-13.87106325549669
12.40719004864806
-10.53026194631567
19.59680908651088
0.2086073389813743
-19.80866906103398
6.047854623380674
-6.231437213623746
-4.681709849335913
4.865292439590294
-4.251427011576766
-18.91684582825265
4.120903518549098
-8.510767046660863
10.44767411473653
17.446636966074
-19.38354403420177
-1.942749824500561
19.7677596821977
-28.37682764127673
10.55181778358285
0.06005688339411673
0.8558284696704478
-0.2882846001401824
7.994073677425409
-7.713748772630923
-12.26046203953196
11.98013713473404
17.79383025145783
-5.829109154279934
16.97367387606227
-28.93839497326414
-1.644664440743885
14.41563576961738
6.668190676538953
-19.43916200535427
-0.0110623288517829
-0.1541491772296604
-17.63740495231404
30.56484030262635
-8.786341108520466
-21.78284700520389
12.15366098310124
18.41552713073113
-26.86666247991109
-2.856712100570943
12.99092641760948
5.715777721041116
5.80831729083767
-20.47369496030834
8.949599948437715
-24.18883148545887
-12.8134602145842
10.13562922016274
0.09103303017498714
-0.07483917233980367
0.1034329421053212
-0.01239991191972178
-0.06551801710451251
-0.2376623796973594
0.1296303812197793
0.1735500157970024
-7.170992445749563
6.514567682713897
-0.06316617256243519
0.7195909352220101
-0.02972980573115235
0.1904414554592171
-0.09473272073980142
-0.01310123388286578
0.07370313637781081
-21.57758837663478
-16.4556612186059
42.17601503696557
-4.142765441713069
0.1423899642902365
-0.1043700914392526
-0.02530322257078995
0.0884110222122171
-11.43836302840425
15.47775188395933
13.39828512725883
-17.43767398277181
10.07437719574185
-10.2716937706072
11.75249328921871
-11.55517671434337
1.996436820929643
-2.780579718302679
0.01009174336117029
-0.08731589303696304
25.01247748412234
-22.56956664330696
-6.246485750213451
3.803574909413856
15.57676020052563
-13.20208124992456
-5.668407579154479
3.293728627427134
9.689087676562808
15.53372935810932
-40.6457383766734
-0.1353274899895222
0.02273307557685281
-0.03138397137789264
-0.0879043889827059
-5.614850686696204
0.908003243657846
-15.52756439223147
4.531858619823321
-16.78341798595031
12.71294575952599
-0.4613863935642232
-8.680898802300639
1.511744801967653
-10.37011916762448
17.5392731679561
-8.243516774002021
-12.74393270479172
-16.46630293774302
37.45375241659332
3.503067784988466
-6.639189529156102
16.48883960221926
-13.35271785839
-22.57445551649754
29.80995295501443
-7.24012383607693
-11.02712566631889
13.99523065075999
31.72938931857101
-34.69749430277054
24.09833482394663
-17.50763186304326
-9.717463919178655
3.126760958381181
0.006321698527584319
-0.09698245185568362
-11.99075397248875
-5.288098851152017
-5.186187404303924
-14.24449577547903
24.16694045915834
-17.37734109760868
7.454896413715765
-0.03042074584101874
-0.04158294085990235
-0.06180471720412364
-6.056259223535386
-0.07845425466829263
5.399912909928756
0.7348005677797936
0.01047530874546966
-0.02316717062836639
0.1306916712103328
8.468035174870723
-12.84091301833187
7.84825894807997
-3.47538110532075
-0.8027548143376402
-14.13848564810863
-4.450068909756894
10.68491790579122
-4.267470385980213
-13.62832656651697
7.210879045693329
1.285377951824244
-7.669552785607666
28.51538927110851
-22.13121443729086
0.04059952144786093
1.175128591043122
25.24219579314383
-22.14661810130123
-4.270706282600552
-24.54645163124321
6.483723732982781
0.2108526710413008
17.85187522724479
0.6894497838420884
23.81656088401653
-24.54402951899966
0.1064008309263633
0.1589914857201009
-8.429850203385616
11.55341152866821
20.18626008302808
-0.6557443546447713
13.27548250538733
-24.56939829424096
11.94966014355009
10.31549530098995
-0.7207215120016209
-2.043770238610648
-7.55100355035363
-20.47525951523691
7.645954407071361
4.318538061453125
-2.759659692983992
-0.9657587444239843
20.97667869414648
-17.25126025663866
11.82582669818796
6.310963633116474
-18.15056329425049
-0.4690540897185337
0.006191418609762182
0.5105065634901071
-0.04764389233648525
15.22987161210651
-9.341088983875261
9.660222654040235
0.9761951261329772
0.1426449578066742
-0.005057868786514211
-1.11378221500658
1.202555689219565
27.39192397875462
0.7477715668445413
4.253750828622289
-1.241068211285541
9.47797358403489
-12.49065620120072
-5.506214435164093
-6.269619225106631
-1.488725206507515
0.9697582884236939
5.214699831675252
14.12426542479166
-20.30872354482575
-0.4305097860300719
1.458055223584914
0.9429240634565855
-1.970469500963907
17.65140495237029
4.640517240192853
7.019360654481284
24.98859061799212
-15.85057054873245
-16.15738072372824
-3.695272907286782
-0.370453274844242
3.315042335727341
0.7506838460324914
-1.413984168489034
-15.02610484107936
16.43046697100982
0.8918907990809686
-10.89260707221247
-7.234702796920066
-0.5997113385144369
-7.793506736594392
12.48764460777492
-4.094426532568007
14.44660304930631
-9.793392682844349
-5.252921704916633
4.979934961689186
0.190724715355821
-7.487106941917879
2.316447264382743
-0.07042023583504885
-0.007348137271141936
0.02906878708692876
0.04869958608114249
-15.87607039890598
-3.028599293508531
18.1853463074762
0.7193233849949695
21.16545371411813
-22.23469277646933
2.330310989624458
-1.261071927192044
10.95152472112791
-6.696512388363042
10.19159071650031
-0.4884334215809423
0.3831066390036211
0.09997581114546025
0.005350971488878595
24.1690776935527
-5.687190873849586
-0.9846808700293502
-17.49720594967306
4.993583427451562
19.09962931370288
-0.9318850896538883
-23.16132765134167
21.92857132833393
-12.23900494387345
-0.9329489716977278
-8.756617412659388
1.25236410884857
-0.1983805969732148
-0.9798132235258756
-0.0741702884023014
20.93774262928927
-13.35856468335806
4.180297802867876
-11.75947574878756
22.85044216762657
4.219772837995023
-9.335356196878202
-17.73485880870439
-16.8407694718768
-15.4773085965045
30.42591774084171
1.892160327331482
0.3258213103655873
-1.010495938523768
0.5496077631954214
0.1350668650215035
13.67132327883512
31.43549704400543
21.7947617806683
-3.371074724992938
-12.98267277851692
-5.441014277142699
0.3948425023972781
16.51947502468339
-18.43118804943004
1.516870522627342
-31.34171209356343
15.45961396402154
8.246408466076621
7.635689663730346
-20.2532909544095
-25.07896092227573
25.90580967274066
19.42644220392691
-2.38166619454597
-8.093897109297981
19.47246892573848
-8.99690562193047
25.15387544369872
-12.3601187924541
-15.17542284578095
17.55516251865134
-0.5550095165071136
8.153722441586297
-2.580210554383427
6.654047389899922
13.48132568318946
30.5050277275345
-39.17812589543322
-14.37410567898517
-26.32913942616267
-7.581750887535788
29.66884771572298
4.24204259804803
-13.48083235349676
16.67703713741387
21.40245805169517
-24.59866283564767
28.98970295039125
-34.63865826093132
20.28578063650604
-14.63682532588159
-18.57501156534004
-8.199491163226293
22.78832162395062
3.986181105277659
11.44619103541681
-29.60131074303263
4.674287354450907
6.441101860084423
-10.85359334042624
7.008866041464798
-2.59637456293247
32.93427705758632
9.627642762827994
-1.680922163873768
36.35910417272573
-13.24650128404761
-21.43168072476498
23.26020949805254
-11.9847033915643
-11.28372143239458
-20.02782422846511
19.10352981970748
-3.044786715460654
-16.06686803259117
-1.05912883624744
0.5605419455795926
-0.2657761244373197
0.7643630145636516
-10.96699159115567
-18.67050969506805
6.162144522791581
23.47535676312011
0.1578355073265537
-0.1808568400872836
26.07454637541174
-8.889362638270564
-3.916494402276641
-13.26868933504946
12.5495837333837
9.514980388869414
-10.66784664615483
-11.22320568101049
15.81762616743493
-21.45413698560291
16.85971649954857
5.300985170160174
2.942057278651941
19.07113666465756
-27.31417911340836
0.2903105582562723
-0.4071809332597879
0.3209224772543677
-0.2040521022357056
22.11614845346146
8.864190443118845
-25.67935372613602
21.99576357652008
-17.75528975700755
12.02898954526456
-16.26946336475009
32.28957854255138
1.09384683167926
-9.468425806969892
-23.91499956741966
2.369683300852091
-27.73720803924026
26.55949775447356
-1.191973015871828
-12.22837665848169
24.3885489121247
-18.88098620902855
6.720813955289335
-16.0401468473478
11.54069293228748
-3.543048347729017
12.72525280918098
-30.69383888509014
22.53804947270516
-4.569463396866538
4.419851683352287
-5.191736580281932
-21.18300642452784
-32.81221084135291
26.65611587454433
-3.588208184333912
9.744303151183582
-4.535327337958262
-22.27452274895332
13.57552133661348
13.23432875031408
14.23385897313874
-11.91209701627054
-5.812923755258011
3.491161798402226
-0.3001533086466573
-0.7247441095400703
0.5779316550143739
-23.83658933905497
26.11543816271744
-35.09105966495239
21.69606716321116
-2.182500239541396
7.142548950910496
-2.91684254935499
28.00347599803453
-2.622089435162748
-22.46454401344914
-21.96750961612746
24.56079442129159
5.403243330358731
-7.996528135425179
17.13697028559049
22.28499769174943
-28.95852561205499
-10.46344236547895
32.31917341279406
-30.15206703952412
3.551117217266288
-5.718223590790082
24.3036091101448
-14.47624732137997
-14.02490538445248
4.197543595733499
-34.39522951016735
12.23123699521343
32.89774708077307
-10.73375456568102
-24.26465424626092
12.33327276131359
-22.46384802511647
26.86079426450005
-13.11960693774991
0.3821155311351785
20.02700380667903
1.644642728224503
-22.05376206607525
-5.765609679877819
-19.63733522391415