/*--------------------------------*- C++ -*----------------------------------*\
| =========                 |                                                 |
| \\      /  F ield         | OpenFOAM: The Open Source CFD Toolbox           |
|  \\    /   O peration     | Version:  v1906                                 |
|   \\  /    A nd           | Web:      www.OpenFOAM.com                      |
|    \\/     M anipulation  |                                                 |
\*---------------------------------------------------------------------------*/
FoamFile
{
    version     2.0;
    format      ascii;
    class       volVectorField;
    location    "2";
    object      U;
}
// * * * * * * * * * * * * * * * * * * * * * * * * * * * * * * * * * * * * * //

dimensions      [0 1 -1 0 0 0 0];


internalField   nonuniform List<vector> 
19632
(
(5.016490741969239 0.01444456580695106 -0.0134683948357586)
(5.001258366820854 0.03741931465107286 -0.002237777438199663)
(4.999564065687019 0.004406826132087391 0.0008243262804412857)
(5.050847762386712 -0.06854012985681396 -0.1492977663495954)
(5.006388401589982 0.00815885063978926 0.0005243924642700675)
(4.996623286977687 0.001014978891129734 -0.009861182337575802)
(5.100460226933364 0.2130788131390457 0.02748299785671255)
(5.000098670463909 -0.005335841650425455 -0.000369262560956344)
(4.999422903843208 0.004272405991545111 -0.09508659943346021)
(5.050287116852534 0.04127667277621611 -0.002029361066950506)
(5.034394493992242 -0.006258678473371093 -3.743132947525539e-05)
(5.010819635197736 0.02009047932309112 0.01002802417423728)
(5.000929289223896 0.004562056893876953 -0.0009162712309160288)
(4.997045476145324 0.005749150192273912 0.001926965425749334)
(5.023552367345939 -0.02579630986585416 0.008563788968173261)
(5.156740679995703 0.03855539898956568 -0.005932529525005076)
(4.99146923484845 0.02711348448544536 -0.001335452130921169)
(5.105941604883643 -0.02510279348933168 -0.02710216905090291)
(4.999120500241311 0.001134973392688289 -0.001399758104348403)
(4.998742259375068 0.02382482258127259 -0.001822810973874985)
(5.030177564457823 -0.006092801729711407 -0.005481989413595362)
(5.208117250046101 0.2419642179673677 -0.234705128717286)
(4.724351229781759 0.08600589145668408 -0.5546310599586208)
(4.998178048895626 0.006807520815858736 -0.0005877020191683011)
(5.002291178071467 0.009589900308292831 -6.005496655426964e-05)
(5.001155673488504 -0.0003444343170254672 -0.0008086641477119229)
(4.995816813496399 -0.008755324007127177 -0.00592073156309855)
(4.963578581746817 0.4508601467717685 -0.4828228679050497)
(4.945916235367627 0.03830774505467854 0.06072204068283487)
(5.003353558354943 0.003506575952584697 -0.0004034157358766983)
(4.999999984912673 -0.0002359751005506908 0.007773334636724699)
(4.9929316632973 -0.01350810032883431 -0.009036384500498023)
(5.061367151691716 -0.002100465044343268 -0.06591009493371988)
(5.068132185291184 0.3453915776559528 -0.1498595591605693)
(4.997168945151089 0.004816740882884122 -0.0005788203771114137)
(5.00165137398342 0.003367071173544478 0.001036119333291699)
(4.997641032870071 0.005492102182297768 -0.004524430418946514)
(4.99551149005856 0.001098918017788873 0.001438988852589826)
(4.999996877616916 0.003950598400500011 -0.001436969219029853)
(5.027293576868804 -0.006511424464559366 0.0025635789852958)
(5.001915338332156 0.004179115547830043 -0.003849599379132182)
(5.004317541559537 -0.00178194983141644 0.03513798186673467)
(4.999985183298128 -0.03242604997182141 -0.005491214198451537)
(7.104519410972125 5.666387983835635 -1.185213151149602)
(5.003140849541438 0.001258122692212651 0.001719652624609083)
(5.003200976543748 0.0004410489457137022 0.0006950135780038984)
(4.999651582785495 0.002759157953029535 0.0005256382534231372)
(4.999994443339862 0.002547491002488193 6.637815310012293e-05)
(4.976997493152745 -0.01599454457135421 0.04785242052554035)
(4.885701704794551 -0.03722271364321318 0.07001555436526356)
(4.995944545077702 0.02599629317005968 0.01122849384521108)
(4.999319811818576 0.0449927960995376 0.0001717442358869975)
(4.998272204482562 0.005860445989345026 0.007781175251272193)
(4.994198824903539 -0.005124844419761314 0.0274488040192272)
(5.007890952667426 0.01628428672185538 0.004653567474871791)
(5.005303877769847 0.0689045627888604 0.00616179311547042)
(4.994421840266708 -0.003453534794855944 -0.01795753304515296)
(4.998361502298845 0.02501324025805611 0.001081221934940581)
(4.987263099212901 0.01740070639682398 0.003290731597877959)
(5.031425767796337 -0.0257502806534959 -0.002097069455584472)
(5.001447963904716 0.02498226974347782 0.0006628958174987518)
(4.995778289877885 0.004806065266878619 0.001880733865935242)
(4.855785752569684 0.3057486258233851 0.07141499400466569)
(4.459800217758498 0.08648987467821322 -0.002806386410303632)
(4.999812132851098 0.002511964487039447 -6.849573331739321e-05)
(5.159755148979198 -0.1460168717865665 -0.4112147316681048)
(5.209993538310724 0.08578387642526257 -0.1313170046576858)
(4.994817360100991 0.03651915450948368 -0.0005089612724755214)
(4.998750308586882 0.006164867051463647 -0.0008558394108083867)
(5.000973548429326 -0.02674738248938734 0.0279149255711372)
(5.011305517087406 0.0007751052731773453 -0.002363932657978136)
(5.000967567334002 0.003731004624474025 -0.001075831931259348)
(4.99752292191021 0.007026185179718513 0.004122881035448154)
(4.993554097166337 0.02867638834235161 0.008795126455783141)
(4.999617429075634 0.001840459598717567 -4.127595782674592e-05)
(4.999536247861107 0.002538995413554729 0.0003100250378680931)
(4.999548819857682 0.00233426112261622 0.002271646454185636)
(4.629326047055182 3.973432884776573 -0.3819402284073344)
(4.789940359830311 -1.1393803861007 -1.041329843556997)
(5.04281469021341 -0.007938939070281856 0.02418728998663615)
(-12.72157320637046 -3.279741965484221 -12.74899285006319)
(4.960680898113468 0.3973707456819077 0.2951255208288899)
(4.994543177271923 0.00688885786975383 -0.002424023068119209)
(5.001231590867746 0.005568867318382419 -0.001348654736392868)
(5.000107481250878 0.0005696731374062298 -0.001684131153460267)
(5.030815918283306 0.09827409041552879 -0.0654638963669939)
(4.999153010051592 0.0005110534306741253 0.002603588335821265)
(4.994211769518609 0.006234013922976566 0.001414165541164125)
(4.988772352190772 0.006066191298650081 -0.008852529566503134)
(4.971247426605728 0.07729982773523882 -0.08813674625233625)
(5.026799590108578 0.01804595781191591 -0.03526523335518747)
(5.00090129958675 0.03052566845865458 -0.003226548258356918)
(4.981091848601646 -0.04657165212241923 -0.05013903610512278)
(5.032200721240018 -0.004730942334192989 0.02250917408025105)
(4.995535273136846 0.03863923605798252 0.002136902030519567)
(4.997713679245206 0.000311144424962965 -0.004292047785694181)
(4.996083782354616 0.007054773220430858 -0.00622409302287385)
(4.999239367823539 0.004208613514003205 0.0009666826570936181)
(4.999888282563631 0.01108634394787588 0.003459699532018867)
(4.99921161506577 0.0285918781352043 -0.001355817023138573)
(4.621843994851841 0.2763092332126517 0.2666084448227525)
(5.001935808436511 0.001047484388926838 -0.00203629229622626)
(5.012566642420872 0.001785936205586631 0.002170039261458577)
(4.999637071385318 0.002145093862603475 0.005360851394024182)
(5.038164574439089 0.07075869785304136 0.2212849422324494)
(5.066371541841693 0.009616324195667708 -0.02564061421978296)
(5.027807973910421 -0.07113609808672315 -0.00494412052426728)
(5.040692947214073 -0.006793252201809218 -0.004344257587220103)
(5.00009028676143 0.008758133314501211 -0.0006862619655515164)
(4.997998337691035 0.03737484606997042 0.003429938308895964)
(4.917792782235436 0.289309956200345 0.4303558965822957)
(5.002859259885748 -0.005540394475404736 -0.001182477610525454)
(4.993642985137119 0.004032993969477296 -0.002304955224982146)
(5.14123408620464 0.1232796569017182 0.03112900020895819)
(4.999517524193756 0.0212124336739024 -0.001063682226566737)
(5.027034183055075 -0.04487550435688038 -0.008588496580128266)
(5.15345618121338 -0.2087714570395335 -0.5708777595487602)
(5.061203198965976 0.2461339558708225 -0.0407037741072236)
(5.000054203982516 0.03790784329324872 0.02902342571472389)
(4.998936929060722 0.0042821722740808 0.002616932581602787)
(4.993061783336095 0.0224741695536288 -0.0009692981337824423)
(4.999303998504767 0.001043332426171399 -0.006221223885496585)
(5.001433884739094 0.006140654782262693 -0.002107678384491073)
(4.999328949219706 0.003170450980822374 8.346490942134593e-05)
(5.10909131502021 0.08907370629934458 0.05164088583963713)
(5.047156504381743 -0.006079820182049658 -0.02655549060408605)
(4.998553387748059 0.001339830978656895 -0.0008196484425694565)
(5.005362441687585 0.006788042745540807 0.000587473380047118)
(4.989452563629365 0.01995003122002587 0.006915505287211078)
(5.001578358050296 -0.003974315027904957 -0.005569881053186302)
(5.01056090641037 -0.00560062511812388 0.002177194199556988)
(5.000642062004632 -0.0005273518767755689 0.0081766642374971)
(5.051183550644748 -0.03149891096900093 -0.02775533926371838)
(4.999256510989488 0.003465914840631577 0.0005100885249907747)
(5.031341924232355 0.04853596657169219 0.04322245273771724)
(5.027657659256065 0.005117728037120523 -0.01032825020024362)
(5.004479221998103 -0.002718669851046847 -0.004820757559542263)
(4.986136034752243 -0.01411367850653671 -0.008651107219257043)
(4.998503698964286 0.004256996005023395 -0.003459119588755711)
(5.002249361518114 -0.01196262358058104 -0.00699251462198254)
(4.445822273027271 -0.03419884834249949 0.3683427301066545)
(4.903682919604912 -0.06344027882259737 -0.03487786419774425)
(5.262749453535067 0.5992240037572607 -0.1333418503067203)
(4.105820849124446 0.2158710346945934 -0.1342600461419591)
(2.856650015132273 -0.9487203672926733 -0.6170070695420498)
(4.999221953585844 0.00239282895806141 0.00034338362528537)
(5.04252081942526 -0.001107773202001894 -0.01453729358474522)
(-1.176482692229175 -0.9727598424018786 -0.4686634001613656)
(5.013731970724455 0.009026889940623785 -0.002525546228387318)
(4.99970062878459 0.002205473714859261 -0.001555418119085464)
(4.948289074497718 0.0315667582826115 0.01652644965606747)
(4.943411851704552 0.03415308655079206 0.01833235114207231)
(4.972201305597165 0.02792061724145641 -0.01172470830142863)
(4.999598523520647 0.003684076440314505 0.0009856107196769685)
(5.109005852825077 -0.01268760695873457 -0.04008371190065598)
(4.961069275497542 0.007599319640476854 -0.00337132275290491)
(4.998944454593034 0.002770817383787677 0.0002305903380298443)
(4.995189717541701 0.03174489029417287 0.0001461616305506125)
(5.026594794697022 -0.1039453705257773 -0.02650792985117278)
(5.148002039713701 0.02157559702680371 -0.5265889459569295)
(4.957494272430925 0.391299019458466 0.2280555853562315)
(4.976964953131062 0.1759835485586166 0.06138622013012224)
(4.441474991649844 -0.2145455148098153 0.7691153783014658)
(5.175706322027245 0.2446609449217424 -0.03916523563025734)
(4.975484287185274 0.01265701194811951 -0.02532573626503057)
(4.995762662797915 -0.02418308246989772 -0.04268036740254036)
(4.996616841884742 -0.01173174442351429 -0.006095102745492247)
(5.006432077107331 0.001900748872220348 -0.13497813864456)
(5.098942441432398 0.3271905247285086 -0.1713269696473125)
(4.996882623852617 0.004365764202699143 -0.00275470023549161)
(4.99914011177169 0.001159709762813722 0.006557253405378352)
(5.011277057864517 0.0003659938412052257 0.0007512656079219458)
(5.109720796924302 0.3644858085972926 0.2756467489210381)
(5.002281662749687 0.002068364791915595 -0.002434520258602936)
(5.004854936802321 0.001672139408000682 -0.002886649842246368)
(3.514165132606669 -0.1884823313298356 -0.09295781103278182)
(4.998433132665397 0.003853008516566926 -0.001140858303682484)
(5.012634312497648 0.003620580029285642 0.001337900223404306)
(4.998814838807947 0.003209417917730769 -0.002754558990748893)
(4.998638538347072 0.003235381625251201 -0.002872479080932114)
(5.001312372521058 0.001905808106854951 -0.000869127597679721)
(4.998742303366315 0.002625153232683919 -0.001681238405557842)
(4.999086644147106 0.002955442085164007 -0.001300985116770599)
(5.005986511988962 0.001517095241082322 0.01886804133821913)
(4.994444237594567 0.03176578235959593 0.0006131344958289838)
(4.999099233556808 0.002128796321691784 0.001084172486677552)
(5.134415277818711 0.01800138190731765 -0.01745970567207743)
(4.999243519151741 0.001449371252493093 -0.001176444245620333)
(5.005030337569316 -0.002167236572665717 -0.004414142672790918)
(4.997893237135988 0.0021879208475029 -0.001470382425560405)
(5.001483794086172 0.002913956506858445 0.00326253476927414)
(5.020308282897113 0.0003028569283077386 -0.003498421852492042)
(5.032772456582842 -0.01434852466255285 -0.00167865416998598)
(4.994372475459995 0.01583398294312172 -0.2298929105082223)
(4.998851971558426 -0.002022835431171043 -0.001901624673267227)
(4.998880184696394 0.00440569424420303 0.000268659764137651)
(5.005701593076604 0.007839259922714073 0.0014330049549861)
(5.018999456251365 -0.144364998759462 0.04598288491380465)
(4.981259646042637 0.02445969849738662 0.0001052343656052884)
(4.846741062040387 0.007833580635887698 0.06560818744965244)
(5.000008674011047 0.03913909753580867 -0.0009303847003796051)
(5.013387647566326 0.0003277938037443114 0.001400218491439102)
(4.999963509295461 0.001934099089927073 -0.001608300598887019)
(4.980064437844229 0.02417484229027721 -0.002474239633230337)
(4.955674700476382 -0.07203095772668193 0.1029283601135808)
(4.985770583409735 0.03419720281255089 -0.1684126738676407)
(4.999193684982262 0.001836496417843785 -0.0003823004645196745)
(4.986332023386259 0.0241215719049828 -0.003118990338309324)
(5.000735216409642 0.002397304905922278 0.003917512485918847)
(5.000438269406152 0.003449664932122284 -0.0008037663960221796)
(4.986848387713859 -0.02524538477722721 -0.009756653307912823)
(4.999552806474403 0.002173247293820023 0.0001559435678332713)
(4.999231183132196 0.001642414966523796 0.001034186987219572)
(4.990258305538266 -0.001602216641891251 -0.01427641646321508)
(5.000998325890548 -0.004408692753415892 -0.07088394814477499)
(5.000864692597502 0.003133575717410807 -0.007650937181806015)
(5.000238683349171 -0.001530343996889919 -0.005746509815764011)
(5.000265246166631 0.00388195632087113 -0.0009669369337072532)
(4.991516641550177 -0.003421927973991875 -0.00705106305126893)
(5.004595048821937 -0.001755498878161791 0.03117176231579253)
(5.063865499767049 0.02013406047706175 -0.008185889785951915)
(5.001705204366964 0.004734682088542152 4.957380946196905e-05)
(4.999964594885098 0.004667800897474868 -0.002761207752259065)
(4.999863947571157 0.004562986929176537 0.0008875634876547954)
(5.388965388830664 -0.08671308748717568 -0.08750232774225331)
(5.006334240447296 0.001440922431491621 0.002537266265667821)
(4.992472973077157 -0.005255307492364295 -0.01149638530866631)
(4.988561189081304 0.01832005461668154 -0.005691562972369582)
(4.998495036035465 0.003345657575601239 -0.001151936930232337)
(4.993399907208144 0.005448369093892711 -0.001410859481257209)
(4.999743755397699 -0.04170148535688992 0.02366109817793762)
(4.996360719403087 0.005003322764992524 -0.0007093349234980263)
(5.003573847846289 0.007209225831100447 0.01757166147779257)
(4.994906582004495 0.004300845164930027 -0.000418907726653988)
(4.996502032366153 -0.01095704902754752 0.009215746036972955)
(5.003389361384246 0.001696787302290998 -0.0003566666851710825)
(5.001014391937841 0.002468336960753607 7.036743530074073e-06)
(4.496858896991164 -0.04728625984466984 0.150644048079255)
(5.018917233914772 0.002221522114683408 -0.00606092181619786)
(5.001759388128188 0.006215148055022598 -0.008639244387139691)
(5.002710746866986 0.002813281142945559 0.0038075975872952)
(5.340647652837651 1.306009643813052 1.069273982953169)
(5.025331656534263 -0.005275537273118 -0.0009413850750759297)
(4.934963016579236 -0.02578129670611187 0.03860067958781651)
(4.999799735015507 0.003740109084036679 -0.0004701446252797274)
(5.002289311046243 0.01073818435962252 -0.0113919715672939)
(4.996518022015048 0.0503666249911108 0.003326187353596269)
(5.025459387905056 -0.004678918773740897 -0.002998295889772685)
(4.999220124326345 0.001915276733761354 0.0006136036265364482)
(5.00119045824705 0.002604278922359674 0.002969110521911155)
(4.999587944990659 0.002550200743939006 0.0001678289444275719)
(5.000763854701066 0.002200805693308288 -0.0009710531214712575)
(5.019082702354233 -0.008264107631735192 0.003525131611296022)
(5.01066733365599 -0.001878499263720328 0.002678749948940105)
(4.954477564838564 -0.06584273236043843 0.002715003547126769)
(5.479773669408981 0.07335258952390966 -0.09841028251253871)
(4.999531940953992 0.004727794165735676 0.0008654215152197386)
(5.019656452603288 0.03703852259444271 0.03599091625372969)
(5.024945277424437 -0.007359314769745746 0.001144979982714357)
(4.879295992527021 0.120562780924345 -0.01914423726764929)
(4.978285886583012 -0.04051031968570026 -0.01742921984693895)
(4.989936413825214 -0.006015893254123259 -0.0007130033098684902)
(4.997246561070132 -0.001529933662296755 0.01448205567719484)
(4.998316210555737 0.004897492636766628 -0.000259849397562751)
(4.985119150174842 0.03209374201020528 -0.1319622718265612)
(4.998371354213485 0.004863409388333823 -0.0006006574808458411)
(4.996846604449481 0.005566288699339622 0.0008075436628817363)
(4.999201638415874 0.01640588473381218 -0.000251120347873072)
(4.997814327070555 0.005444392930829481 -0.0009528063779582864)
(4.999931259985543 0.002103971504535146 0.0001164163649405181)
(4.997424205113973 0.004914423631384158 -0.0008466275251415186)
(4.999654454988225 0.0006024638999223842 -0.001453598250223815)
(5.013305249057584 0.04835659199632614 0.03474156837460945)
(4.999000797323137 0.002109051875633939 0.000845170619455996)
(4.978696966092017 0.01011017936962313 -0.002716474927343887)
(5.002461131257852 0.02524533305030154 0.009927542876529954)
(4.997535316278259 -0.003041899538423699 -0.004753129712387441)
(4.991310123677056 0.0006541497290896549 -0.01042005718929131)
(4.999288164085999 0.002633787214048684 0.0008922858874248503)
(4.870702779361544 0.3444219030812269 -0.257649601999934)
(4.996988624307572 -0.007036054539542543 -0.00704420606770651)
(4.997915276097547 0.0004181406300200345 0.09333119284901797)
(5.009126370335562 -0.005379250737113102 -0.001383471496785834)
(5.000250675576417 0.005121467393832436 -0.0002514201951373979)
(4.825822358291497 0.5192935932167757 0.2190927232450258)
(4.965364664577282 0.02022056096979406 0.1859091997507196)
(4.997626652455524 -0.0267268873620674 -0.001350455296436883)
(4.997667357983183 0.03962274544955336 -0.2663680685911912)
(4.861569925055345 0.05752113388448472 0.1475012948201065)
(5.000006067781962 -0.01284466796061846 0.002814486584797513)
(4.999276414810497 0.003316839078251049 -5.550780076505998e-06)
(4.980494195409817 0.02775902498889409 -0.01453761357014613)
(4.999072738032426 0.00728332564320495 0.0198394307954256)
(5.00069141709171 0.006387602292094485 -0.001507676375823089)
(4.998505656626784 0.001117571117963474 -0.006396792712667228)
(4.999055089545926 0.002330979174144348 -0.02707672473715375)
(5.013571501437976 0.02030125359667607 0.00793572296837412)
(5.456604767339118 0.1920256040258717 0.3778489316640657)
(5.003249945051047 0.002182607164665065 -0.002488244533016728)
(5.025012160632102 0.003777963637634695 0.02963826881041947)
(5.028481606109516 -0.02062179702658805 -0.001167360496979936)
(4.999293482064282 0.01261139907505478 0.02932250923632263)
(5.00096013293629 0.002503173113957844 0.0002874308274095727)
(4.999973209432397 0.003416856574661674 -0.001306065861840254)
(5.010368102281974 0.2260588729609967 -0.3298258954527297)
(5.012010302758894 -0.0272616853125966 0.02571600745530261)
(4.995995408832431 0.007423986236954234 -0.002339199352411237)
(4.999150778843665 0.002057302880147897 0.0004415435079038952)
(5.001579670846358 0.002010963686195515 0.001028240754125863)
(4.998687013984938 0.001554548737668532 0.0005178461578796022)
(4.468427147902256 0.1360191717045053 -0.2703300400924561)
(4.134744605528173 0.2571326032502072 -0.2238570299160877)
(5.087464352750467 0.005218173988108562 0.04044681115883058)
(4.994968003073278 -0.01791150583400314 -0.01122712440614436)
(5.016960613593583 0.3272448358033594 -0.2275095926982623)
(4.058338393912005 0.008826948843118021 -0.276938634199797)
(3.994618399443054 0.1112744969085904 -0.08846817269334772)
(5.003513964927635 0.003717756840205795 -0.002418098549680037)
(5.233415041209204 -0.1131647886147383 0.773223969375727)
(4.94036373983244 0.04106848268320917 0.3499529562964468)
(5.004206964328441 0.007763310834645561 -0.003103500597303833)
(5.004012650725657 0.02364426728449059 -0.04155213632417983)
(20.91906163891728 -10.81295838424412 1.381557577636597)
(2.83666621350578 2.25050374511079 -0.8552134319361546)
(5.000264917358513 0.002948794207638427 0.0002186315684208725)
(4.996640272486766 -0.007585995726620309 -0.003218131481495456)
(4.996448699980945 0.0281817280251527 0.002053002157125684)
(4.810561098514068 0.3818820318725205 -0.0476292771699906)
(4.726974208188619 0.4763713249813447 0.099736394690147)
(4.894348510816044 -0.05077870247950066 -0.004085926644748974)
(4.995939034711577 0.005624166686813743 0.0005392966354101015)
(4.999424791749279 0.001763521700327251 0.000135959541380742)
(4.998671442170796 0.0003446233336719211 0.001598332669080208)
(4.996094867082649 -0.009036938874910539 -0.01606345026064142)
(5.001512758210077 0.001773894085996663 0.02670002704136089)
(5.032761924367096 -0.007957711927477873 -0.001606188068590223)
(4.967031774770008 -0.001750096569174709 0.03253353120993425)
(5.20126522618756 0.008298610997283486 -0.3860772492682221)
(5.070478991467191 -0.003083451519239921 0.002628444474410094)
(4.044947527446805 0.128716311391977 -0.3506685694382442)
(4.998298739180494 0.009835933333241476 0.01160388116468966)
(2.766655369189503 0.6663922742596891 0.2179787581421969)
(3.939769170109068 0.3552729074911058 0.4110162915129919)
(5.003217809982405 -0.002381663801892002 -0.0005989419639489285)
(4.343415608427775 0.003088198848620402 -0.1046800403516892)
(5.001055818386373 0.001105019801788247 -0.000954630507510682)
(4.729371421630852 0.2579647351039426 0.08442005630206624)
(5.001360594379773 -0.01460671877974629 0.01282190291350375)
(4.535172555175158 0.6358680303384191 -1.775187143010785)
(3.323594596305417 0.4688756694474088 0.02014627271097523)
(4.97284002227047 0.02460691436814702 -0.04001261386859179)
(5.001687412567813 0.004037398880284234 0.002773265615469795)
(4.959233465683603 0.03559665758063899 0.179051866184719)
(4.14543876705023 -0.570601566181093 0.08277919863618372)
(4.996441823988564 -0.005202414921242005 0.01010827669166841)
(5.000430623844248 0.0006835209775288699 -0.001317311140484853)
(4.999793479789237 0.004643925868102399 -0.003839538306647351)
(5.001199732518711 0.003853032675395065 -0.001772684396122913)
(4.996674513748089 0.004671813033320768 -0.002142326051019539)
(5.000382915522573 0.006828804535164591 -0.04408596207198802)
(5.022905104140273 0.06130800546628768 0.003434334469049384)
(4.998847365821264 0.00108598853318349 -0.0029627592343605)
(5.027682322905919 -0.01719373443607594 0.004651895680003949)
(4.998121034326883 0.002799588604981041 -0.001676890874863097)
(4.952173142551601 0.0005003082310833756 -0.01734128931304478)
(1.569731835301928 0.3615905298953924 -0.7144622602118604)
(4.992070002456539 0.02236079452762206 0.002498590849220949)
(5.028133491846425 -0.01673722771929047 -0.01236526773612292)
(5.000808525055274 0.0003475464126783683 0.008251423865708965)
(6.710897183074619 -0.3450065553498696 3.174814203683302)
(5.016210875657611 -0.000221227273369686 -0.001275893070940678)
(5.000117140098676 0.007964273829237195 -0.06790345014445903)
(5.7257283041399 -0.6793580036475152 -0.3164627937598792)
(4.992510268350745 0.0181136858299337 0.008943888743082851)
(4.990968356925357 0.01878074436115422 0.01049814965018472)
(5.004237043136349 -3.148608752369554e-05 -0.001747106665304719)
(4.291009896679091 0.3734519757971353 0.1672786358888299)
(4.999188362361359 0.00246526961270798 0.001109493388945385)
(4.998398359480572 0.002676131002349889 -0.000316436117428107)
(4.995555654967909 0.01555334005946041 0.007963542699394078)
(5.121109214434497 0.04448042591115957 -0.03593819679992635)
(5.000053751015463 0.004181369361660789 0.0004624230018610044)
(4.993558886587227 0.01265296934735892 -0.0003183837172331592)
(5.000073578890459 0.002611804779397888 -0.001062840991899672)
(5.029760404458433 0.004555651176814436 -0.0006862471364948897)
(4.999792564978236 0.004523247938683412 0.001373855371039767)
(4.999748896747468 0.002415516613212954 -0.0005708156307068158)
(4.974179652322068 0.03050530631945459 0.007200992828693515)
(5.040265923244597 -0.0006307844975093431 -0.007077651898133815)
(4.999696494478354 0.00356106535228459 -4.816475255330243e-05)
(4.999089599898178 0.003403052180375497 0.0001957747617746749)
(4.9915575750293 0.002767628067710259 -0.004411737322098036)
(4.998938496986725 0.005922435076545436 -0.003033314587308456)
(5.000075423388048 0.002703786609231829 0.0002278054511929513)
(5.001754417203828 0.006299149816475495 0.002232607517935104)
(4.999585876534613 0.006925471743567373 0.001438428559232829)
(4.999065698565521 0.008675833170997925 0.002301800999439693)
(4.999604782145819 0.01155878332003015 0.004665285146203513)
(4.999841226826497 0.002030028922050031 0.001088516585647865)
(4.998572175419495 0.004235385917181944 2.86081579057201e-05)
(4.993877461308372 0.008540448784494408 4.196104465367126e-05)
(4.997485369605956 0.005685097372133804 -0.002567633791174859)
(4.965756962741169 0.04235939670498914 -0.01480613627744294)
(4.994283362339918 0.00274965066459559 0.0003112906485931049)
(5.007246295888721 0.001474602525429068 -0.0009529126267803028)
(4.999510477970402 0.003411462559199562 -0.0003277550783333887)
(4.999691661627426 0.003257285639636307 -0.0001331526780656845)
(5.010488196789071 0.02953826141367483 0.0918979076528815)
(18.59818264480511 -1.071312193719624 -8.982235988792414)
(4.999889845768438 -0.001045255930252742 -0.06355552653832409)
(5.029336075023521 0.01740799063511345 -0.02212509302002129)
(5.000115614442124 0.00407088194244077 -2.235969342752279e-05)
(5.074656365960219 -0.1208073934400732 -0.01815647027014419)
(4.999051067851114 0.004842583095282644 -0.001174268430217834)
(4.998408996686645 0.0325335864692956 -0.02371980634429395)
(4.993550880659728 0.01288951036817953 -0.01252103945685215)
(5.00118952036483 0.02469606053659408 0.002526368683608291)
(5.042948236445526 0.0627079274235159 -0.03759337641884326)
(4.991996762710671 0.02089763840124797 0.001389832757911762)
(4.933244334585027 0.04775829374094726 -0.03126174411533415)
(4.99919102407277 0.009397644916224432 0.001632621510892267)
(4.997809477773044 0.01182354610179584 -0.003050915846949712)
(4.999398492373811 0.002606048861490629 0.0007152311371683188)
(5.730257193222156 -0.7545155075039691 1.752473162048533)
(5.012690440494562 -0.003998354147292268 0.00491372781743549)
(4.998254857581928 0.002866641421680676 0.004043307871068581)
(5.00144511569567 0.004431644816975428 -0.0002118337123498393)
(5.001547187460639 0.001336131122998328 -0.003006408015701032)
(5.010545973509706 0.02528552847418016 -0.0005489610282468477)
(5.086725760715788 -0.07988506714086469 0.06316110572019899)
(5.000851038342273 0.004222210905385653 0.001016817375608246)
(5.000618491301524 0.003478127454343143 -0.0003182945081140945)
(5.000054595966168 0.003285518776262556 0.002678598898922475)
(5.001543741035431 0.003056009427000332 0.001182661213561102)
(5.000300070294458 0.003116782659052236 -0.0001767859681059293)
(5.00040454793917 0.003050340728370849 -0.0006716137117725896)
(5.001123896333896 0.004122034392777514 0.001525659645871446)
(5.002230364442027 0.005041966080006225 -5.159262473801567e-05)
(5.0006925359781 0.005870689332729068 -0.001262284032267934)
(5.001080827874405 0.006194132624260733 0.0004152916623972235)
(4.989690205577515 0.02553148723168555 -0.01074064915827119)
(5.020602166102822 0.003375576958574321 0.1384977515193216)
(4.984537603488656 0.02490642359444638 -0.004836084276705476)
(4.992969080731383 0.02663144460608328 -0.04227707945150717)
(5.039942042692956 0.03952964761271444 0.03373096699253717)
(4.979143966161397 0.03315487142902986 -0.003650568336152557)
(5.000888979647591 0.003347620355823193 -0.0009663341976962286)
(4.977227725020829 0.02270686768405713 0.01627880783145163)
(4.996711201061889 0.01135139740289256 -0.001720299431705272)
(4.996206632152346 0.008309059071044544 -0.003398735071664827)
(4.972426182014905 0.03247559352700041 -0.002572774442014877)
(5.000346999168586 0.01658847635640637 0.001580142688043629)
(4.999845994548652 0.003887299046999403 0.001123142686492562)
(4.996671689825962 0.01758649980418431 0.000577238887979021)
(4.996750864229803 0.005734110837603766 -0.001684226281981346)
(4.997811180611096 0.0004310962148617092 -0.001677552983397515)
(4.997708369164026 0.002720360282801299 0.001284890459076623)
(4.99553934931498 0.006835400442000848 0.001478353211721663)
(4.995964054325142 0.01060746097451912 0.003485766935353375)
(5.010452859231553 -0.005004789236972275 0.0007314277672720657)
(4.979099701262294 -0.02313387217851672 -0.06856659826429153)
(5.001554882798709 0.002630960757876986 -0.0006174020574877922)
(4.982524143303086 0.01613189358220611 -0.007490706427074635)
(4.996121711570627 0.009007577743691304 0.001615316116603566)
(4.997362328942573 0.005174587225242847 0.002105351638534437)
(4.998290679054145 0.003568980780205836 0.001520446054475287)
(4.997420425496944 0.003878664403360043 0.001527896575048413)
(5.021848113035458 0.03970227698218584 -0.01079670505437354)
(5.001512653719002 0.00764306484115558 -0.007454435478748356)
(5.003685398897318 0.04405128251503788 -0.01461659977893137)
(5.000182308478573 0.002254783183755799 4.942645637199038e-05)
(5.087216036963287 -0.04687109628826321 -0.07858234406664505)