/*--------------------------------*- C++ -*----------------------------------*\
| =========                 |                                                 |
| \\      /  F ield         | OpenFOAM: The Open Source CFD Toolbox           |
|  \\    /   O peration     | Version:  v1906                                 |
|   \\  /    A nd           | Web:      www.OpenFOAM.com                      |
|    \\/     M anipulation  |                                                 |
\*---------------------------------------------------------------------------*/
FoamFile
{
    version     2.0;
    format      ascii;
    class       volVectorField;
    location    "2";
    object      vorticity;
}
// * * * * * * * * * * * * * * * * * * * * * * * * * * * * * * * * * * * * * //

dimensions      [0 0 -1 0 0 0 0];


internalField   nonuniform List<vector> 
19632
(
(-0.004177029924940233 -0.001954218140732911 0.002266439552003551)
(0.01770356231039038 -0.005943157988952615 -0.008300097771796352)
(-0.0002316193268187094 -0.0002460833483835526 -0.0004324093581944453)
(-4.113618393921618 -0.8187685562930911 0.1450501761472669)
(0.003544742202995851 -0.03260002486017069 -0.004904446082061078)
(-0.01073201482223667 -0.006238930583604762 0.00480464168897248)
(-0.04068199504825006 -0.3820403652740373 -0.1504775510403543)
(0.02001145937641301 0.007647435176759046 0.007270037013723966)
(0.02842764072163495 -0.01290957893822199 0.001218318301307125)
(-0.05704465296586048 0.02876416929487052 -0.02194797242626712)
(0.04888733161403706 -0.07533951650643511 0.03396925812671317)
(0.01391295191720592 0.0277194254872983 -0.0003105595688107851)
(0.0007786551718463671 0.0006284413665056372 0.0004258545423547276)
(0.0007805153658695941 0.0003473956884820972 -0.0004298116564451797)
(-0.01698553813087267 0.00554024133313515 -0.009372496814642757)
(-0.0466431817264162 -0.005991224919327436 -0.3619827780971838)
(0.001918117454474689 -0.005018865452843306 -0.005906489724849148)
(-0.03674074321606431 0.05025023653344687 0.03192768292417905)
(-0.001996352631004583 0.001901400994347005 0.0007926924917585541)
(-0.006076319500468594 0.0002644101001566702 -0.003185502448517168)
(0.1765450404512807 0.0342932098412351 -0.04202933060191693)
(0.3289282550674665 -2.589801375250207 -2.10710343137063)
(-1.016775599532635 -0.8356495664113283 0.1742020657867726)
(0.00415569163787729 0.002677390646996081 -0.007982575691373157)
(-0.00402007712714481 -0.0005350998200585637 -0.001029512199194228)
(-0.00702526851815993 -0.002545204050337359 0.002570310979613198)
(0.006381245676459237 -0.004088881340201368 0.002345015743803149)
(-1.321464326745474 -2.035819430790506 -0.87838974700239)
(-0.01279271673875803 0.1632498228535847 -0.08844176919987644)
(0.0009424881217504917 -0.0003045994468428696 0.0008427388229305208)
(0.003118616746663813 9.604022900113005e-05 0.0003677026089903973)
(0.00077226968186228 0.001926508903438175 0.001013081485485932)
(0.01120855531093728 0.0006348579442339748 0.009637146518012164)
(-3.173451596195485 2.5653688176563 -5.573878734133325)
(0.0001976935151601103 0.001168253352755064 -0.0006739265935776563)
(0.0003931016391222321 0.0005809607521969889 -0.000351277977431565)
(0.0003258704818809733 0.006939282245028499 0.003039764249469533)
(-0.002362829611835256 0.0005942998010392301 0.0005567788547352864)
(-0.001684908909376185 0.0002362872451731793 -0.001663445380353411)
(-0.0001635678116284362 0.006256104684519028 -0.008217426562677332)
(-0.004282207427470879 0.0006204124477875286 -0.004326677743474988)
(0.00151678234356913 0.001476618761916981 0.0008217018631378661)
(-0.01826982933475531 0.005763043985284867 0.02183783210169702)
(6.364188102533525 -0.3322942305875076 2.836855598712516)
(0.003609814394831498 0.000332188564182567 -0.002649501307178176)
(-0.00553928172094123 0.001748321588908373 0.001002681457780888)
(0.0005744714317936096 -8.621193131649509e-05 -0.0001999543194083686)
(-0.0002765764043506367 0.0006181909766519131 -0.0004742620364511879)
(-0.1304639893704198 -0.01339568876997695 -0.07327990557407404)
(-0.03337284020367472 0.01447188033365355 0.02540781183768713)
(0.04157038345075376 0.009584285888017244 0.003218225927883559)
(-0.03626750510176897 0.000263358638764702 0.01541008711062922)
(0.08137497194639111 0.03010965320559489 -0.03839679457885661)
(-0.003033558118959207 -0.006385758355795139 -0.0002149077281943489)
(-0.007254750946277314 0.01424103954510482 -0.001667237341000757)
(0.01380100303241905 0.0005313802763381786 -0.007159710629452164)
(0.001779342236703875 0.0001511546514030579 0.0001516602817282615)
(-0.002174252729678275 0.001915595942500466 0.009313041024559911)
(-0.005406290107668197 -0.02656601112460845 -0.02117089743522228)
(-0.01623039269964451 -0.004605635025967304 -0.007366943891658173)
(-0.01322429298305908 0.0007031849761226608 7.701160921357334e-05)
(-0.000437120169596333 0.00162901402437315 -0.0001374431587040224)
(2.515753896080839 6.775949767743333 -6.312448525862376)
(-4.65634789198478 -1.355478848024725 -16.08658464815978)
(0.0001044271209854893 0.0002980887312854084 0.0002238262469388073)
(-1.434921636482066 -0.06525984803924191 -2.161031605617213)
(0.5747107371650383 -1.334816717519875 -0.886418533087752)
(-0.03271802695359958 0.0003428594687874696 0.01522670723024149)
(-0.0009281487837301096 0.0005886669250099481 -0.001081845867961249)
(0.0008227431340552521 -0.001716766518040798 -0.004742784001344386)
(0.004563667512339038 -0.01138428053230228 -0.001575764408929268)
(-0.0006457256383974196 0.0006777131164587477 0.000511614229745099)
(0.0003036230752994653 0.002642169290224787 -0.00255283747237802)
(0.02325463529948459 0.0007181868489934965 0.0115236295501415)
(0.0001824152656879313 -3.53167192921186e-05 -0.0003829592083524309)
(-0.0004395240059935008 -0.0003733380813404248 0.001198227105248576)
(-0.0004037328764021334 -9.021684439267891e-05 0.000246131932887464)
(0.6333403661106481 -0.2663014350128435 1.900648403613683)
(-2.452427769035009 5.834406568602077 -2.373628699130214)
(-0.03846549835663135 0.06492968556540395 0.03005263018818861)
(9.701871554880377 -4.143686488636684 -12.42527969772362)
(0.1003583509172501 0.8493919226148107 -0.2114175661981926)
(0.0007816509077678601 0.00182422931341749 -0.0008597642395623381)
(0.0007160046729220401 -0.00112500671367326 -0.0002498369595453653)
(-0.001535133785328977 -0.002224014064306844 0.0003805350661883909)
(-0.01181321930886509 -0.05466463969220436 -0.00363085746659709)
(0.002154620688188676 -8.664013782390851e-05 0.001455585227144217)
(0.003247752661520074 -0.001048473863548982 0.008733525741833127)
(0.001940131877470267 -0.001003071060218204 -0.001524222075838826)
(-0.05957403098798458 0.0178416236827798 -0.05794415368925792)
(0.006674239800804834 -0.00781943362390362 -0.0006263939494463959)
(-0.01735308912371756 -0.001328791054552893 0.00914147087658633)
(-0.008043527503539961 -0.01507540660639693 0.01161654082521204)
(-0.01222439689519826 0.01336585416998936 -0.03410777508806614)
(0.01238867795263796 -0.004045510754834433 -0.004432902568059326)
(0.001753042675061474 0.0008994563978945962 -0.001705560836731867)
(0.01100839351904494 0.002433013239435672 0.004396339731663678)
(-4.5129847423941e-05 1.247754420801968e-05 -0.0002604423640409216)
(0.005107021101926624 0.003105852091389609 -0.005227050838916188)
(-0.009599344049938731 0.00127704884863737 -0.000122026574867277)
(1.736647475497761 13.2489437655775 -2.241504130170602)
(-0.008125560374279823 0.000480477769889062 -0.0004836676489574082)
(-0.008588855526302888 0.00376328193986124 -0.004886350887612459)
(-0.006033914626010609 -0.001071215239109414 0.001895927038517423)
(-0.1873725421739004 -0.4239041620213861 0.5081054717118725)
(-0.1656567722950807 0.01019842650297164 -0.07099369757247065)
(0.03735028044469513 0.04169812196962954 -0.04660647240486973)
(-0.002755882913871939 -0.002871576190973187 -0.00428153040266053)
(-0.008583550743443129 0.0010130360268799 -0.0110939624211251)
(0.009779083195182676 -0.0007154200114224903 0.01054939847684314)
(-1.387017583033682 1.968508989329875 -1.107715970478641)
(0.01112188468228283 -0.003827068178700628 0.00401310659313783)
(7.306853556634718e-05 -1.045053552100521e-05 -0.001341322511107834)
(0.2713495448762888 -1.953396199139067 -0.5823400452377636)
(-0.008119645482682729 -0.001949082829411045 0.008859865984921824)
(-0.2076844678425646 -0.04406910380172575 -0.04366031935698995)
(-9.300010351136073 15.58575383806701 -5.789382182435953)
(0.679452097834203 0.715044399517641 -0.4935576552231863)
(0.005010739216245437 0.01974632956587959 -0.04844879438385413)
(-0.004359593448461654 0.001816832478147927 -0.0008548319355253793)
(0.009519607311578044 -0.005595233844384482 -0.007096177606879214)
(-0.007432131058694114 0.001511578295129408 0.00040248743568861)
(-0.001055182086953786 -0.0002907466299120775 -0.001579578723545623)
(-0.0006699760699551765 -0.0004462478375575762 -0.0002940611504222201)
(0.5758182607887137 0.1655266109876893 0.1707862449323884)
(-0.03041430602061761 0.007859146386796183 0.01878794726479369)
(-0.002177620449641109 0.004524617079388954 -0.000495186471088294)
(-0.0007048233401876071 0.001716212044306039 0.0007686363797406097)
(0.002428997741258308 -0.0474016761055536 0.07735986941438416)
(-0.01475901268594858 0.001756495995671266 -0.00044621857057866)
(-0.0006295295249659017 0.001795048972300505 0.00283919995118651)
(-0.001389405175045624 0.004033758370260141 0.0007722591918579901)
(0.02111161266377743 0.005408130571828484 -0.02790847539671254)
(0.0004639300191429691 9.933923819957624e-05 0.0004500209562892834)
(0.02984553282512382 0.00385999576820693 -0.05752352602398271)
(-0.006097710842266665 -0.01664765093111303 -0.001952333377802973)
(-0.001823929037241562 -0.001463858684596592 0.001909335566306864)
(-0.004801944168879144 -0.003714575573395299 0.005472710548000262)
(0.004756432873956478 -0.003891998494797489 -0.0002738027105224577)
(0.007518706954591866 -0.001055536647595689 0.001447223596543986)
(10.37722148046539 -18.78197968169017 -50.99575670986994)
(1.491090472656478 6.778457396502479 2.099372447566199)
(3.550779724525829 -6.488208311718176 -5.227821374143799)
(5.991002067866787 12.26439592079476 -2.695475659457593)
(-2.16179437873453 8.768329264806503 -41.06366259640849)
(-0.0002797915839793705 -0.0001063760436675891 -0.0004285876682779872)
(0.005864345870511355 -0.03401519203069982 0.002158281789080669)
(0.3681324100682116 -0.6752564546872282 -12.02892056671721)
(-0.0009576159048676324 0.007311842239818243 0.005061205879357398)
(0.001522202878715541 -0.0003935404965259758 -0.0007861437079672074)
(0.0006006036061602508 -0.001553868234780558 0.001266793481268809)
(0.002017966675632005 -0.004172169898604113 -0.008290531034997798)
(0.01096734887975643 0.005575988014386382 -0.005574684659170704)
(-0.002213291270466282 4.485784087895342e-05 -0.01101901076001475)
(0.08967131579332804 0.2762809367031186 -0.0279434953008371)
(-0.01693635700264576 -0.00835914044700244 0.002476325152273192)
(0.0002850488391011814 -0.0004739682853501325 0.0008264216701280517)
(-0.0007836364002191519 -0.002667026536976752 0.01321085582973828)
(-0.02363282255321433 -0.05430430988042194 0.02463231400096676)
(2.569327738798834 9.393538267498716 -3.176436622700535)
(1.201199296328272 -3.358074740521306 -2.080425389644231)
(1.14086172152161 -2.867205997137046 0.5515062010607197)
(9.9231637741591 -5.428338833800474 -28.00033555899076)
(-0.1090395365426781 -2.357254106228206 -1.358425154388951)
(-0.001764855057991589 -0.007190388923836495 0.007693381527617734)
(-0.07219267112141467 0.03849674006459991 -0.08950753758114965)
(-0.003780164903149114 -0.002648575375123485 0.01460140851097687)
(0.04833773766850789 -0.0002110432408733362 -0.02775842482301477)
(-0.5916860346845492 -0.4038924390809371 -1.441069119135426)
(-0.0009429871232799824 0.0005064164454200642 -0.0008330581209947453)
(-0.001533005705477116 -0.01455297302854214 0.005934998830872632)
(-0.0009639918046871702 -0.004072841972041903 0.0009515256580802261)
(0.4025324682002704 -0.2975375194637432 0.2345986358205751)
(-1.68371478482076e-05 -0.001152625849234003 4.018136577654406e-05)
(0.006357750323941294 -0.009160646234248174 0.009740075929410105)
(-0.01556575012487955 -0.2396817398964795 0.4231132485953666)
(0.004522489714857138 -0.00331813949966425 0.002013655372295889)
(0.003208189239536002 -0.001306952736838128 0.0004753058693073207)
(3.567867660065596e-05 0.000749885052850482 2.374957973179961e-05)
(6.433644998757153e-05 0.001360550925018162 -0.0003038499389467758)
(0.0005307985009308932 0.001130002667452971 0.00064560797769776)
(0.0005032039052673221 -4.352968857749671e-05 -4.340027438254132e-06)
(-9.979399834833503e-05 0.0006127353927943759 -0.0002480977509647293)
(-0.0009232364048651818 -0.01913583061685011 0.0008600441896997146)
(-0.001575195765788109 -0.001681485884580785 0.01443604934853948)
(0.0002198300780161853 -2.088794449879208e-05 -7.596000813726853e-05)
(0.001652711776880768 0.0445682085928799 0.001881395550947199)
(0.001051324454818717 0.001012678534091172 -0.0006089030724748496)
(-0.005489187499023595 -0.008950435156796197 0.001313069212511491)
(0.0001549230972883712 0.0007447204585947817 -0.0002761138014248825)
(-0.003447465779541286 0.0006872028034746978 -0.000856305793455083)
(-0.02259140725356979 0.007065783242275699 -0.01122807158360469)
(0.04185772402065287 -0.01302157862046293 -0.006636951221836981)
(-0.09013180412138368 -0.03733554700424266 -0.0004786862310204648)
(-0.002369901274693671 -0.0001387162468415824 0.008531082579192847)
(-0.0002533827265057253 6.65995123071375e-05 -9.292505128420943e-05)
(0.0005706821792040906 0.0002817182091176268 0.0003603159271236092)
(-0.514364300749119 0.7906165704754449 -1.468096802955224)
(-0.002085778133741098 -0.004097792981637446 -0.0004668617097279329)
(-0.05409391005928475 -0.02242298234531268 -0.03038066128221018)
(-0.009147907394187992 0.003312579661333549 -0.005778343489642112)
(0.004153404311906521 0.007202728523718235 -0.0001794083400141356)
(0.0007167948453425017 -0.0004832886210580577 -0.0007037223836278296)
(-0.01493464716553889 0.0009868853792010766 0.0003728229588869612)
(-0.4797062266355065 0.4495899504896653 -0.267751697032353)
(0.08179969408483233 0.02538513475050482 0.0003886365440997157)
(0.0007810434953702918 0.000891697491783373 6.15323288740416e-05)
(0.01917953162015041 0.01371758419577954 -0.008678639376814476)
(-0.001350727471797618 0.0005142089537956529 -0.006951716645321963)
(0.0003741273459195369 -6.10059598905197e-05 -0.0001676231595457985)
(-0.000136822306491873 -0.005614539194782801 0.004284133910616434)
(0.0008922575522667249 -0.0003458333987495928 0.0007545100453022202)
(-0.0002577790631462652 -2.52500110487917e-05 0.0002325604780703623)
(0.00106533942132461 0.0002500808550775012 0.0008973029960263031)
(-0.0189358698039926 -0.0061981625808525 0.0007629783081041185)
(0.003559881241639758 -0.007734234085437837 0.001715015691409482)
(-0.001634016615717762 -8.674482107730926e-05 0.001158156781616476)
(-0.008356725292913416 -8.385244286384882e-05 -0.006723193377751035)
(0.01191237279812722 -0.00458434245153014 -0.003176996991386567)
(-0.092464817339073 0.05198803105238764 -0.0006770333090666339)
(-0.09074919020300687 -0.06835757096762807 -0.03952311967004377)
(0.008100562211598697 -0.00359887508857902 -0.004270924579837597)
(-0.001285000821320693 -0.000943188726130519 0.0004440642131110748)
(-0.0004135522984462406 0.0004213505268964226 -0.0006170853997628845)
(0.1276042035208598 0.3526855551916147 0.0229298805411674)
(0.02329262936375648 -0.010873325675129 -0.01548503954596597)
(-0.02322576181318851 0.02909889678489836 -0.01136400256900387)
(0.003101510662687747 0.005799186497491391 0.003020138047179898)
(0.0003160225156891466 0.0004340175620465934 -0.0001650678851308477)
(-0.001096009985750247 -0.0009343974241767536 -0.00158844400175288)
(-0.02018194925478054 0.02102054255037948 0.03442821958958384)
(0.002088127863446637 0.0008654676728546524 -0.0003920092283484308)
(0.01608868939572584 0.006541078007981689 -0.001240090676414196)
(-0.0005668818005763575 0.0009947509323790802 0.0007406759512228901)
(-0.003841527269254194 -0.002219519410898115 0.004049504455350163)
(-0.00175817270552249 0.0004164050881240836 -0.002023086361115293)
(-2.806609174700505e-05 0.0003435697899200008 -0.0002661879513475871)
(-0.001185217194946464 0.03970494777265542 0.2122898419007029)
(0.0006626714341761014 -0.006390495266350011 -0.002294964520580055)
(0.006364762971363238 -0.004094938715154583 0.001382071165276645)
(-0.002651342264189427 -4.490893091925075e-05 -0.002258532886742747)
(2.334542253028622 1.548743369348427 -2.499093183064904)
(0.02347521290924248 0.005128045053325708 0.001650994753252004)
(-0.0583882740069322 -0.04773138488521428 -0.1178116818674874)
(-0.0004153280958526617 -0.0007843022592404135 -1.655320475796396e-05)
(-0.03235147600639551 -0.01520790724287303 0.003843421009654301)
(0.004971136307483917 0.001822489517346089 -0.01195572913168353)
(0.003279057099134919 0.01044179939902475 0.004785985001321806)
(3.884219023021681e-05 -0.0002054687828909057 0.0003976806434099755)
(0.001809024875680422 0.001792944569613494 -0.0002303759270167745)
(-0.0003113588846420778 4.284133771547469e-05 -0.0002039748599792924)
(0.0008293231378910616 -0.000418246011728269 -0.001106779780930137)
(-0.008090202948733621 -0.03046837794641735 0.001930357871163503)
(-0.001147013134211832 0.0001357555525709575 0.000445258847950747)
(0.02043458523596714 -0.01042519066120055 -0.0106784837126814)
(-0.01516150153795125 -0.083024758201046 -0.1522221396454075)
(0.000538461031580508 0.0002546079122728696 -0.001894485967485811)
(0.02171163508559254 -0.03174646880364 -0.005881032759675767)
(-0.004400136959007391 -0.02225477331036443 0.1632264381356102)
(0.1346438681169302 -0.03764787878070326 -0.01958411014856573)
(0.0196918566773578 0.00902911308623161 0.03008662755664216)
(-0.004871099057616798 -0.003367739791030165 0.0003718143327868665)
(0.009271061263132162 0.01025598196901553 0.01386017352891532)
(0.0001171325751016713 0.0001129473285969468 -0.0001089772693331561)
(-0.002766631496697543 0.04239451882986902 0.03640082450633903)
(-0.0008543124969676849 0.0002199081018496052 9.547145453000105e-05)
(-0.0004379120839610927 4.993745801610042e-06 -0.0006173971087337602)
(-0.002357884095941119 -0.0007447641581933025 0.002560227813217554)
(0.0001558367991063896 -0.0008487138868253079 -0.0002175767341622938)
(-0.0004642179250188837 -0.0005855889912948797 -0.0004087356414017783)
(0.001898205266695426 -0.0008294628771935408 0.0005434436423822739)
(0.0006178357021674394 -0.001508505170735794 -0.00060999612417638)
(0.06198715168346797 -0.02598367452796688 -0.02887653480980374)
(-0.001168345622932844 0.0002135685614756393 -0.00144261735157003)
(0.0047600604439594 0.1266383286068979 -0.003102882276991367)
(-0.02520638640732406 0.002970925987256985 0.03022711327490949)
(-0.001167809989373104 -0.000598893513637204 -0.001291267994476464)
(0.00378493531410522 -0.0004383975816240272 0.001127847459468032)
(0.0002955795180774888 -0.0002733954820559757 -0.0001340619795223847)
(0.03177179438827002 -0.2371562925159361 -0.4068651813096809)
(0.01311437816932595 -0.009387046649660514 0.006980695238355707)
(0.02387995388123451 0.008258650969869153 -0.006812425607014167)
(0.02233666345413085 0.003685404603129936 6.163789336637374e-05)
(-0.001304183258849933 -3.512622698821344e-05 0.0004372190819391538)
(4.454642869940069 7.21069222201341 -0.9885182753490795)
(0.06570642992735186 -0.02442855102061569 -0.01056701614129942)
(0.007503689183436602 0.006257537885049912 -0.000817569646768419)
(0.1154476564540217 -0.05249070223941273 0.003495137571738114)
(0.1826938724697734 0.05052776981477036 0.04271313747482594)
(0.006042408972254045 0.003116128087046512 0.0001567616581493827)
(0.001454716911567164 -6.099341060492879e-05 0.0004284393002182998)
(0.001371215538799774 -0.004360185935243407 0.004888969251997893)
(0.02546714720683575 0.01143910160913525 0.001076366321687234)
(0.002458586361876944 -0.001121074554486283 -0.0009066170606759643)
(0.003627121606465386 0.002931304458851619 0.003618401516817933)
(-0.01088622572318834 -0.004438910431981304 -0.001827351364140732)
(-0.0160098167400194 0.0542145185346934 0.06978600101897352)
(0.3406426099619818 -0.2768332910104661 0.1211225416520668)
(0.004361435105753413 -0.006198914210039289 0.003151727089403158)
(-0.02619572314564669 0.01640799833817918 0.01710578361912478)
(0.001710182155952195 0.00451553296374638 -0.03153584853701594)
(-0.05957378893630812 -0.009403829527728391 0.02231579009037767)
(0.001621156538096858 0.0004195224642524575 -0.0006792128535767478)
(-0.0003651423190322097 -0.0003072282567153616 0.0001803781799507403)
(0.8824513659456344 -1.394988631493841 0.3590315159722325)
(0.002279141179583328 0.003165827379594063 0.003964769972094924)
(-0.00362870331230881 0.002967103987007152 0.002049501715576136)
(-0.0002115683443238633 -0.0001884688891810991 0.0009594306995270055)
(0.005016530709526995 -0.001520601599809267 0.003100024836444491)
(0.0003310580211376962 -0.0004881157018764259 -0.0002668837344467771)
(1.108350731012195 -61.39407806858244 -2.845189940852586)
(2.910499324791389 -55.8957882534067 -1.126331706616065)
(-0.07095471638097656 -0.001371198010695044 -0.06695534940195066)
(0.001317772313334087 0.000348700394986145 0.0008324851129723386)
(3.561829347857022 -2.343635005358284 -6.135400224757701)
(-1.246534976689854 0.9852524871501895 -3.966769212289106)
(3.732618582253396 -52.81608255692461 -7.693288509744944)
(-0.006780692123706051 -0.001904220411040311 -0.003830632410205336)
(3.342474421639571 -9.621500125749812 -5.045303404234502)
(5.651073730588492 -5.981634932250223 -66.9317124568549)
(-0.01101581774522464 0.001492698441018571 -0.01675142253214936)
(0.0416194376909103 0.01227717170401796 0.07758760839036712)
(-0.2054047935329851 4.702013289637053 1.082553299542438)
(-0.07030814005693919 -1.327542148935953 -48.36403639379524)
(0.0003869371846413898 -0.0004209479607654705 -0.0004466467202227186)
(0.001758563197227751 0.0002185097090797374 0.0008883299697187725)
(-0.05384738568948517 0.02255781581619464 0.005924391754175579)
(-9.674856896238298 -11.54378263820928 -5.931782296470184)
(-5.519070857584443 5.236962771084348 -8.78379283351518)
(0.01573070626316452 -0.01900869192579218 0.08436273313794884)
(0.001066128254084592 0.0004292862874406833 -0.0008069429623464275)
(0.0004104241358975672 0.000433436073637774 0.0009852440600040149)
(-6.261216515951817e-05 0.0002598387381859002 -0.0004990641065880701)
(-0.0002615387296447183 0.0007955991300368629 -0.001422771689916288)
(0.01475273355419806 -0.01390102140124836 0.0006294938628307568)
(0.02490117638267738 0.01596352936829709 0.01033940645144944)
(-0.002945482134278594 -0.02202724776660321 -0.07912114144819987)
(-3.523046775341844 9.245992749500271 -5.200454891887884)
(0.003440118379219164 -0.05091395930249437 -0.01804904522198139)
(-2.625982009193133 5.82696007427684 -58.26980871507793)
(0.001300585037746307 -0.0008487842588996515 -7.332413070775098e-05)
(-8.62613910813289 60.33351267673537 -1.171986749134682)
(-5.748604495111725 71.13198527841517 -11.10812069680597)
(0.003381402801541462 0.0006211335298238748 -0.0004903625512996299)
(-1.196605627662422 5.152197469338304 -3.39246698743279)
(-0.0005593834881762117 -0.0009212575746925711 -0.001089454425080199)
(-0.03400474538634048 -0.04386187427373328 -0.256822599257842)
(-0.0004818177940913587 0.003062566240975559 -0.002907884728183831)
(-0.4181684929023077 -1.339461811515244 -1.644628048726612)
(-1.905054025618134 44.05316978936863 -1.157009515189152)
(0.00645863922018471 -0.01945229480314729 -0.01692806606777569)
(0.000291168795098808 0.002180167509252125 -0.001283504994939362)
(-0.05695554693630268 -0.01332462350711008 -0.007712876652760169)
(4.442065008110784 -3.980191641229592 -3.803896333265562)
(-0.0111935804045912 0.02046000359238211 0.009599539056256687)
(-0.0002408246151380367 0.0005688244701026234 -0.000843650471213594)
(0.0007767244337264144 0.0005452533607209314 0.0003559357187224807)
(-0.001944957513988992 0.00310952044108956 -0.004549737223807901)
(-0.002986197795256497 0.0008928002168200602 0.00131391774878137)
(0.02837748696435268 0.00612435209637544 -0.00153481836595626)
(0.002563122490723971 0.01681985024191545 0.009537898548853674)
(0.0003881821961768382 -0.002042440527337712 0.0008426861947535563)
(-0.005734165208411842 0.005593589918920727 0.009759347269881874)
(0.0007362794434944222 0.0006516963565883896 -0.0006527899688380642)
(-0.06686721225766448 -0.002800163009927293 -0.5021997613076424)
(0.3600195043012112 0.0784417693503624 -0.9100428086709061)
(-0.004992822330108322 0.001874791312750466 -0.0008897837517302281)
(-0.007250713027158419 -0.01220352811081281 0.002038305992927768)
(0.001409431476719517 -0.02006162982589435 0.01469319105769622)
(2.966315143751005 2.909300557088695 -2.511024307948879)
(-0.006584410019317198 -0.004813061224688418 -0.005390616312674438)
(0.0103678611644268 -0.01315026040317224 -0.001034560332889006)
(-0.6263989494616607 0.7398286812585367 -1.529598585990107)
(0.0005229858868192228 0.000630091625708339 0.0005016729145360089)
(0.003197261736838387 0.001713883644705428 0.001788027903929261)
(9.072674834248238e-05 -0.0007917615138830887 -0.0001757819151870507)
(4.30414352680148 19.20085371514805 1.155495855372165)
(-0.000155761637471589 9.534608840901633e-05 -0.0004349464864221055)
(-0.001961240606561492 -0.0004057465750043304 0.0002880294981702107)
(0.006872294875707678 -0.0001536118843878927 -0.003006704358397372)
(0.4091782906085369 0.2960345050714249 -0.1665126182538519)
(0.0002132544529515278 -0.0005452051183076969 0.001194081770069184)
(-0.00411260341434134 0.0004846774437541276 0.0001022861247787412)
(0.0006598101867599916 -0.0003069519892685296 -0.0004558451804214654)
(0.03596581337428958 0.03688043829171038 -0.0129857732369042)
(-0.001066538599247898 -0.0001528794727675125 -0.0001934394247409263)
(-0.0001924872070410944 -0.0006688160113932241 -0.000446362628585249)
(0.007119673913448078 0.001967492204868602 0.01778282002612122)
(-0.06073340979008838 0.06023717157161583 0.01138928609140731)
(0.0008168186968549993 0.0007228765658807627 -0.0004993665037765471)
(-1.550550637423244e-05 -0.0001774636217796219 -0.0005463069211663643)
(0.01835888450087754 0.01456652560360229 0.03284895244581809)
(-0.0007193150808449053 -0.001576266882725844 -0.00131180489752448)
(-6.421048562947165e-05 0.0002305959908064657 -0.0003737598191414758)
(4.833195923482805e-05 0.001140492231870244 -0.0001199965322106098)
(-2.739272775788032e-05 0.001229458546518811 -4.056091987707702e-05)
(-0.002395034661660814 -0.001453016958587209 0.002322447143493158)
(0.0004746084962801644 -3.964812169657413e-05 -0.002114459340833927)
(-0.0003518897655259826 -0.0004928199863545539 0.0004360454319241575)
(0.0004733262542346138 0.0009583553994230707 -0.0004203023948311614)
(0.0001608364228244559 0.001499469375079375 0.002207180833140839)
(0.002064024856204682 -0.002232271457069514 0.0007236283013344662)
(-0.01501731153183878 -0.03995682403024991 0.08503249368095644)
(0.00336091839137586 -0.001114668371617838 0.001815942125544884)
(0.001145278870871336 0.0005474113400827645 0.001291004890967336)
(-0.00034640986981442 -0.0008472078587475515 -0.0002293090344668559)
(0.0004075750552204105 0.0002067983864576081 -0.0002242458632048894)
(-0.00352577032288566 0.006656710531282979 -0.004230651706691527)
(4.422207239028207 0.1619318265295489 5.096780208199774)
(-0.02161641222329131 -0.002220796899978239 -0.002012189213245306)
(0.08479617351206636 -0.01538729485818099 -0.005504958030561329)
(-0.0005110181194107988 0.0003556764713503908 -0.0002345180168702735)
(-0.1794687027016873 -0.05184050078871014 0.05821717407733487)
(0.0001829846969392159 0.001491112709561578 0.0005604882437719778)
(0.06269713328071458 -0.00528224386712741 -0.006356173984055654)
(-0.002979312126349175 -0.0006025664109646925 -0.007519738155331898)
(-0.003319636379129262 -0.0001719874682407414 -0.002435144345579731)
(0.1662331749072108 0.09882818283373848 0.000783760318914725)
(-0.00245207736726569 -0.002087656560170313 -0.003531336720153471)
(0.02693414783379241 -0.002756679848522087 0.00683697985151586)
(0.001628119255839413 0.0008865532357979105 0.0001045489412549227)
(-0.0005133977467527046 -0.001991815667605405 0.000165599902678489)
(0.0004381626615454794 0.0004242898844369908 -0.0002941690828555534)
(0.8577851613519524 -3.339393064793381 -1.138821796266376)
(0.01010191134469877 0.006143637202046145 0.004133790281814934)
(0.001279943744225181 -0.001667635762419163 -0.001816441467006122)
(-0.0005646336087649387 0.0001017191768140286 0.0003841537552363099)
(-0.001099003188256194 -0.005374715455110395 -0.004130461613641841)
(0.000203842782193995 0.001100646843090018 -0.02088844295953249)
(-0.2891531809215023 -0.1334189774964189 0.01109859190017656)
(0.0001835362110820917 0.0007458781730373222 -0.0006503898166252264)
(-1.674097190861387e-05 5.06942113392638e-05 -4.087068906610038e-05)
(-0.000375133329373627 0.0007312386856579986 -0.001613271719534484)
(0.0002889965403159355 0.0002407807098739586 0.0003827433554955656)
(-0.0008475140287706195 0.0001805423441939456 -0.0001999198959450693)
(0.0001344965378576695 -0.0005725740348467431 -0.0003718514227237824)
(0.0006470339556012435 -0.0004412332853106442 -0.0005425080904783493)
(-0.001125469615751012 -0.000791994226299995 -9.201723427972053e-05)
(-0.0006508733857125252 0.0005501750296153846 -0.0004065751121343303)
(-0.001155651237701383 -0.001091009026171089 0.0003937476558465079)
(-0.009758266751013621 0.01128491966694293 0.001483901292193825)
(-0.04992693947275111 0.0555627125062078 0.02859245176343777)
(-0.001867768864011861 -0.002775547930126054 0.005003623877750202)
(-0.0001771353588485981 -0.003368240019935177 0.0001839890408293703)
(-0.0773925117963123 0.01025539891767174 0.1001386928198567)
(0.004973643984280495 -0.0005191347953429645 0.003149287852776294)