/*--------------------------------*- C++ -*----------------------------------*\
| =========                 |                                                 |
| \\      /  F ield         | OpenFOAM: The Open Source CFD Toolbox           |
|  \\    /   O peration     | Version:  v1906                                 |
|   \\  /    A nd           | Web:      www.OpenFOAM.com                      |
|    \\/     M anipulation  |                                                 |
\*---------------------------------------------------------------------------*/
FoamFile
{
    version     2.0;
    format      ascii;
    class       volScalarField;
    location    "1.1";
    object      p;
}
// * * * * * * * * * * * * * * * * * * * * * * * * * * * * * * * * * * * * * //

dimensions      [0 2 -2 0 0 0 0];


internalField   nonuniform List<scalar> 
19631
(
0.3031133126649538
-0.05934544500261419
0.3361260391939959
-1.118229228845826
-0.02257618190427638
-0.4889849691924857
-0.1579013660537263
0.7038702025920653
-0.02586012264111036
-0.256008811088596
0.04639896622851091
-0.1910762632372845
-1.643877929366014
-0.09657880667121485
-0.04795524320868677
0.0645912787842625
-1.046539426932539
-0.07037965667582857
0.209520792216903
-0.0007417884336879323
-0.03349926542888615
0.161556683755798
-0.006444457292275701
-0.5129592504711564
-0.1601041286063356
-0.0462812931748214
-0.2074931712426922
0.1101880884422453
-1.60838599014932
-0.2382019755891175
-0.04887685564307629
-0.4929308194775186
6.449480479945
-0.1363959800318507
-0.4485294453655818
-0.08147472911921211
-0.2778495508946722
-0.03437799544607967
-0.3270386471545594
-0.2987172246730364
-2.100795069453587
-0.5911548076968873
-0.4581049472444773
-0.1989637405548511
-1.012319553962544
-0.8087974281770214
-0.7623701528207395
-0.1154216575180386
-0.3621232657596181
-0.2004778657023961
0.1895246898735267
-0.1920885262674772
-0.5379935529368247
-0.3276165766603843
0.008706372584245513
-0.8125514699791181
-0.4265981505207301
-0.1377925500341523
-0.3017239005870116
-0.6928461366037453
-0.90134686369763
-0.4680559968220669
-0.969094576295769
-0.5155791746166294
-0.7237345842980819
-0.5414114463607628
-0.1712014378559137
-0.1826292190448513
-1.409050883641639
0.09052259104320581
-0.7785121227421751
-0.9194196176533311
-0.3363164010296198
-0.2675048390687463
-0.283851588909926
0.3183251295207527
0.04227809273105366
-0.7855308748725742
-2.009135140526534
-0.1303163753995638
-0.6833987645339059
-0.006984365678064032
-0.1999541242044416
0.1028817467674089
-0.3609101527772597
-0.443520984649819
-0.6272900609075726
-0.8630416473305125
-0.6126774614189598
-0.9886057714756284
-0.9207823492570802
-0.02897003943182462
-4.887987317299008
-0.7940395365515067
-0.4409567932750552
-0.7444991128337127
0.4676990063195998
-0.1624422923146461
-0.5803826385385605
-0.5032969886014891
-0.04259136433134809
-0.9219737455183754
-0.09937005237856973
-1.940158825021391
-0.9212819472195617
-0.8907851067986897
-0.1950707782873203
-0.895259275052531
-0.2286925863751956
-0.06065563844040861
-0.4942959786352702
-1.407126649313934
-0.1809349519783469
-0.3292749943966845
0.4457788907249839
-0.3978795240835659
-0.5502053645565516
-0.3048199292117559
-1.13971649971458
-0.004438967384321397
0.6685443394547003
-0.0004659395180217431
-0.05167216683521984
-0.1879237266568141
-1.291657871115068
-0.05651513406523163
-0.223041545878764
-0.1000280126909715
-0.02798895366168261
-0.1515282154135683
0.5634613549609178
-0.9747851065214378
0.734738331203473
-1.245347215129066
-0.08646013714399393
-0.2147734697903784
-0.2947695661121362
-0.0486178859257787
-0.04704020753625793
-0.2441976275991801
0.01677394273675412
2.742793282155158
-0.5429786137803142
-0.6173202565088457
-0.3090699457074253
-0.4016208653467883
-0.2516819366892914
-0.03600505238624541
-0.5881679001009961
-0.578621909857545
0.03364578686958132
-0.1592514804362697
-0.1708644930358482
-0.1981648653077205
0.03637395672328283
-0.1850715583555785
-2.12146482222778
-0.3960518813347112
-0.2662645140905823
-0.1566129684334997
0.1406042822844175
0.03021101188141202
-1.053722577109915
0.003534004155036951
-0.1459823514515521
-0.09512272689395843
-0.07521547536858615
-0.05514849669329123
-0.1861143012387899
-0.7511964461731284
-0.5710417485297314
-0.6241983675856629
-0.6660406668537618
0.3699312684225558
-0.2512198358377817
-0.4419631190316208
0.00754143342777684
-0.901819204554356
-0.2416462952902636
-0.5365383241975377
-0.5517355113562268
0.1018562031590067
-0.001622857296533922
-0.1166205316428645
-0.1172635853007064
-0.2137088656209183
-0.4113982220998431
0.02336815554929165
-0.554751998913976
-0.2219853779277448
-0.215451238170499
-0.8162540789692568
0.1682101382388735
-0.1971005644277688
-0.8976450663916193
-0.5109602516514414
-0.1533537271561544
-0.6364120367386475
-1.06470204833971
-0.8084827555685078
-1.645698488928657
0.008265759848073335
-1.315012335469648
-0.3649278134344428
-0.1725286029640054
0.01053546001537514
-0.07739606113509313
-1.026426591970456
-0.3783504294928131
-0.369846560052949
-0.3638447453535736
-0.2647810938600605
-0.3534022146488184
-0.2952226177967119
-0.1117458495270993
-0.7807914897530197
-2.076616487758746
-1.016741836695309
0.1753353704799491
-0.2408651745955849
0.1128647215447311
-0.3586796106982626
0.02169911677384171
0.07272435524772074
0.1118115183007006
-0.7472446237595326
-0.4075492852167721
-0.3553750720316049
-0.8499392948217762
-0.1672453109292082
-0.7686946936029567
-0.5162824860707074
-0.9728998529914057
-0.7768789314149714
0.3575002761383049
-0.2873595491756288
-0.4249958239853027
-0.7025470941722882
-0.1310926791917504
-0.531504396823851
0.1768475327394226
-0.3092782807327692
0.9022410798310053
0.06845736476979514
0.2589425453989062
-1.49166643667131
0.02706764103022921
-0.7183921672613696
-1.074442926434898
-1.541820920680049
-0.3854908451721483
-0.7712423345683045
-0.3811646237430783
-0.9765205366956574
-0.3013462627251354
-0.946159928259886
-0.3555381488560779
-0.9110174569145146
0.06748050461368581
-0.7534169629525641
-0.1376330869486089
-1.763130082868395
-0.5400494185047007
-2.668529155342045
-0.1499123096651838
-0.6342616699964807
-0.1747580997557522
-0.8476116590132504
-1.188677921491899
-0.7638200173753031
-1.998997969370595
-0.159794794415994
-0.5210699984832663
0.2110572573486065
0.3403023148303221
-0.4391273532844342
-0.7772347911788253
-2.33542610789678
-0.4594248139400875
0.01479483607588282
-0.08883708426310272
-0.8051190579147118
-0.6665708872083332
-0.5047791486717694
-1.397048511571355
-0.7487885744816639
0.1087022406951546
-0.5675367505292735
-0.2405057141101476
-0.1145349160183915
-0.7529325594044429
-1.002158981858358
-0.1044274122210681
-0.1283362896169414
0.06023805368884998
-1.139067175731121
-0.8686749258195451
-0.7434214100460829
-0.8271428971332845
-0.7505455677610967
-0.9477042121614413
0.2648544156013983
-0.05647352828871167
-2.775618963125807
-0.9800053809693667
-0.3064599746467608
-3.737066116382086
0.3267006805647131
0.200922443827822
0.03283005493722067
0.1873303058376483
-1.007291345783599
-0.9869903421573669
-0.4199023650379652
-0.1988910975625474
0.01273793670319002
0.04921094760207485
0.0302924846729366
0.4343492903672455
-0.0225377112514589
-0.9815273326136935
-1.555663760809232
-0.7919967297394039
0.0005938697994625204
-0.7551213164794224
-0.1799730117455036
0.09935087056285501
-1.342390004338498
-0.8279396878842544
-1.539456094382078
-0.05217544343218044
-0.2475702800061898
-0.009683291721564324
-0.1406263574973129
0.1949399699969039
0.01253547701395224
-0.7747729305441202
-1.131294685365656
-0.02743064662932479
-0.3949732643569365
-0.2268492783982314
-0.5793385254116292
-0.3543505725200977
-1.0321256668667
0.3004073397929537
-0.08002283711096295
-0.1983181631956165
0.2895504492943025
-0.4738039377103031
-0.6027765681813203
-0.5497327651492058
-0.5961713436955876
-0.7790900637362892
-0.6307896568094906
-0.4889218028853238
-1.657010809741045
-0.1846555160589876
-0.9457540807666279
-0.4287971765834569
-0.8680270623595459
-0.4940689091604701
-1.376033036553945
-0.07699488641484126
-0.1383318114485649
0.1223988058396828
-0.4165809148706598
-2.055061093117772
-0.1615508071960123
-0.3063407408921116
-0.8127387560144201
0.005478406960760829
0.01049499520372805
-0.8276601268422022
-0.1244616893451241
-0.2708602521231835
0.1228470897167197
0.359293007832775
-0.1258221558422721
-0.4632032697078247
-0.1411540727090967
-0.4200788377578614
-0.09610093756419845
-0.04583807236117447
-0.1669761018707619
-1.009438889671554
-2.238287563496827
0.6399849348242276
0.7443215240153974
0.7043949644829139
0.03325643362879238
-0.3903777229614057
0.1134989715562248
-1.202824077139022
-0.6840613013842274
-0.2760007250906374
0.1221832479706567
0.05729346222719789
-0.9032579175525077
-0.3751893281592759
-0.3576195489981669
-0.3212397923040092
-0.4822431161410051
-0.04233260379921387
-2.230395036924519
-0.8951271840545889
-2.297564777672406
-1.109384569294139
-0.4026776272545206
-1.406897963535709
-0.3854177684565749
-0.9377413977808258
-1.234301344291685
-0.03353621464985482
-1.092707796997025
-0.5778442841385051
-0.7602259147250009
-0.5976904477974665
-0.4549340521385864
-0.1659158074056609
-1.206714795666974
-0.1015188833770062
-0.1704379566751761
-0.29144136584235
-2.452309882722363
0.1061522804502611
-0.3056470092233787
-0.2500467116497394
-0.6032258797363116
-0.1960821255671313
-0.2816399522573399
0.03085141908967627
-2.099904658807379
-0.3828012592083855
-0.03108079192464012
-0.06600834130931738
-0.545707041493494
-0.03697050091662188
-2.331182274895959
-0.5179456214594745
-1.176949234420149
-0.01505213882131089
-0.2628588081056357
-0.6800443298024964
-0.595374596401873
0.07865176576045002
-1.092778160459143
0.05330233225710163
-1.519308008635686
-0.9751882224911934
-0.2968105015594792
-0.348005448569067
-0.4801650705634953
-0.5547420188413174
-0.8262253775129591
0.03769993485396275
0.03450452412135267
-0.1191229092186426
-0.5207537427229988
-0.4988461673128814
-0.1994851686770491
0.007640614591784332
-0.190253805336964
1.045665513582623
0.06715685741168487
0.08198668236034129
-0.3939391382655285
-0.738744711209169
-1.390074325141385
0.3077018286497741
-0.0515653945966121
-0.6220381884475444
-0.9823455803214752
0.009055828075434633
0.04276447941374684
-0.1814597803879412
-0.6029647460629962
-0.03963052892824017
-0.7298158401734854
-0.117350500878991
-0.6322507587989576
-0.7979910692075792
-0.6293398681872263
-0.05542363301128252
-0.2222129848155219
-0.7824894745960972
-0.4384071119540955
-0.3127837505910899
-0.4057855155115777
-0.5307657242769596
-0.2004753572912772
0.008896644628293447
-0.6449660726848696
-0.01522396523970308
-0.003257171562892039
-0.7979296102307157
-0.1247658681144586
-0.5479018258295963
-1.06942129844052
-0.8853466062650203
-0.8141917969808924
-0.488886876963137
-0.2344631910917161
-0.943933088329444
-0.06164385117876962
-0.07267980196390841
-0.06583142684841535
0.3302576713104571
-0.01440318267520618
-0.02053289904106624
-0.01313136687774578
-1.123587051383664
0.02795488185162329
-1.240072220107453
-0.1535484717016451
-0.03715633414838964
-0.02064419580752146
-0.4286943281019409
0.01278694331148158
-0.04213605705488963
-0.7903514965723814
-1.007475871467166
-1.012035556716491
-0.6427427100863333
-0.4895236083129773
0.3122620338584202
-0.2440722031967959
-0.9005530902835892
-1.259661818030353
-0.870652612181227
-0.0306336173447016
0.000692613935853976
-0.0100094671479508
-0.04057219620661717
-0.003547436848855882
0.04506713719677108
-0.00672137347762677
-0.4768659808663983
-0.174427208069321
-0.5171328513371281
-0.6119919944190766
-0.9879948841089585
-0.5155761122613293
-0.1183714886619343
-0.3275984419714513
-0.3339907693017927
-0.87629064931742
-0.088313021250033
-0.7063529585721062
-1.000663071805596
-0.2193755016517649
-0.8232816806046087
-0.350562775086413
-0.07382231637208173
-0.4475689820345511
-0.6941567964175989
-0.02545595100172919
-0.7447699703240697
0.29728261300693
-0.3695328384008502
-0.7341673441366542
-0.4789564977687757
-0.3540571008172735
-1.295954362639485
-0.5094480239532089
-1.004301939575519
-0.06386030872520732
-0.5031232089642148
-0.887924132749229
-0.381141749446708
-0.5643939041407722
-0.8136382766648168
-7.067541348991325
-0.2209627180521777
-0.2572591644256954
-0.5516517460967472
-0.164199053554066
-0.8476970971439048
-0.02018733969568606
-1.610068548598839
-1.058398493664516
-0.1167602276127725
-1.311260785490759
-0.03427419079121958
-1.473652415507987
-0.6863517190362147
-0.5225350320982319
-0.9586070018181841
-0.3720672466116896
-0.2977801178623569
-0.5590012203806859
-0.2289496485877835
-0.3180183506418029
-1.423956298947881
-0.6034147045654636
-0.5476057476593146
-0.2529562583227145
-0.3078981164992411
-0.4600719877197674
-0.4422027183852213
-1.026758152123636
-1.196919999530795
-0.406284754999201
-0.8952008669637367
-0.02655401411089348
0.008928156133786922
-0.4718817430881847
-0.166529503421858
-0.1513788352073316
0.001082116075765486
-0.6612452735235841
-1.249221318334242
-0.4488588208541914
0.008627819885652907
-0.6792990472311586
-0.1500064948337038
-0.9805629155832202
-0.8463633299199008
-0.4585107548609603
-0.08127156708372957
-1.177983540718805
-0.7370676383732414
-0.5588704449247635
-0.4310800947436378
-0.1947883186278661
-1.392989347334332
-0.7029618808705809
-0.8573801001029785
0.1014566359095753
0.0146825052048671
0.07682956920888084
-0.6402099694124191
-1.34435690653883
0.3033370521318245
-1.982474744735131
-0.4468770116253518
-0.3804948797211793
-2.519320584858189
-0.5522439619608662
-0.4531088983600283
-0.6871903417023284
-0.3224499213452796
-1.071693278066001
-1.098434272122873
-1.666938289070122
-1.114288069566702
-1.006093755795065
-0.8812588706250855
-0.9162761687312073
-0.9098552311537774
-0.9075801262212123
-0.5093711774366423
-0.4928311347330857
-0.3978962564115458
-0.2488140158108573
-0.8419665363198735
-0.7011064414978244
-0.07217400118474836
-0.5009490329124541
-0.584460763795743
-0.3625499512878511
-0.2805707796600363
0.06569072867558172
-0.2741816452215709
-0.8440926081962552
-0.6283463993268571
-0.6692083299273255
-1.381925163812898
-1.106954167710228
-0.1815489483720536
-1.248329434633766
-0.2259114554493048
-1.460008814508373
-1.099678651827368
-1.139855057935916
-0.3958031822026759
-0.07085991722843689
-0.7569172337096418
-0.6167456608093522
-0.9449371962994018
-1.23871685032101
-1.382032968762571
-0.8535503562553975
-1.214448692702176
-0.3054584031253463
-1.592445639438998
-1.06416340009904
-0.246211303940284
-1.080910714694994
-0.9093789012871172
-0.4030122178636177
-0.6506295278512291
-1.101361399835765
-0.6092575482068159
-0.06452360274301119
-0.5703496284179855
-0.6046515299670945
-0.4294970937585366
-1.083673795585723
-0.7939883248808811
-4.09982880892345
-0.9401675408021051
-1.165285313393611
-0.2391612664145174
-1.351822626437026
-0.7905140154707758
-0.4024824732483371
-0.9684373838458225
-3.077955336364927
-0.8044522043603668
-0.3720830841067437
-0.7877395910907899
0.7290380334453017
-1.1897773236911
-0.5816898508437713
-0.8033163177346697
-0.8657823857680699
-0.4477460540417152
-0.951141749063858
0.07823972171504646
-1.25242252601262
-1.311609615262367
-0.5051326462189336
-0.2548172721974132
-1.333921151391687
-1.144845687492113
-0.8271372264331014
-0.5599478013119761
-1.319454805965989
-0.7767379499789414
-0.1904222022352895
-0.3565287200920692
0.07742468956780575
-0.6334334948501005
-1.07168054451138
-0.4709931486133934
-0.8772871759833072
-0.6726225118058664
-0.4282660590608741
-0.4281811101851585
-0.4199660115605506
0.07913125488839944
-0.9992876438279601
-1.023298749205219
-0.3701978044617993
-0.3619780125743526
-1.110836995623492
-0.3906785583415812
-0.8172132598582836
-1.013008598293613
-0.5022063174516277
-0.6965589041114385
-0.7711284440619942
-0.5957564766342531
0.02865670980378906
-0.5435584825299613
-0.200958779640299
-0.6810967173815632
-0.5746909030709805
-0.5795471327073618
-0.4283545571536129
-0.7800375751625324
-1.478071498454789
-1.328501004919117
-0.5170302116538136
-0.7606962963595451
-0.3715526014441893
-0.767200231388973
-1.01464318376085
-0.6592165984903554
-0.2516245672636137
-0.6047950663158905
1.168713803436467
0.02395492004716993
-0.7083808288819673
-0.3747166568375733
-0.162039864237659
-1.943232542816989
0.009348216296680307
-0.5395631926073237
0.014978503279625
-0.9858760113532299
-0.02868246174617678
-1.458601177153267
-2.399793866187116
-1.974823147238925
-0.3596119552613365
-1.027739764394989
-1.743935607926868
-0.2661774006150216
-0.8245832931502702
-0.3063350616491088
-0.2711554990704972
0.1245306721086833
0.3069629449100149
-2.483830880448167
-3.754294839910798
-1.466030360425493
-0.551488330055471
-0.1862462753240631
-0.6961856112235503
-0.6816765752460451
-0.05805842993653845
-1.438664335733841
-1.825490356293359
-1.094956741459283
-0.748235751750881
-0.5799967428176552
-0.9315242968822928
-0.680706740328913
-1.015655321288216
0.08822222835207197
-0.8984982776076856
0.08664282686744215
-0.1200439858166213
-1.625589145144365
-0.2955329219050508
-0.9299569224633635
-0.6469455648104764
-0.8002864453533762
-0.2524432441695042
-0.7240644538272027
-1.398123197522246
-0.947250006626021
-0.6222256001300366
-0.2967146120110161
-1.474662039464318
-0.2795595329783472
0.08278869678302081
-0.8095127255920086
-1.143027223394858
-1.907873880287285
-0.7796503062805952
0.2439291181669979
-1.313719127817781
-0.02376086463641963
-0.01434619465899086
-0.3692534263346317
-0.7229400465290167
-0.0323020658157543
-0.03956705790667247
-0.1793529193677117
-1.000454380423248
-1.288813519989034
-0.5460025471178931
-0.6523944651809637
-0.04895792133905475
-1.252505265600334
-0.6416683821010737
-0.1135707927062427
-0.1357564918657127
-2.900185803608019
-0.4670993783551049
-0.8244407752152432
-1.183319338601434
-0.3010203021109066
0.02180723739018687
-0.3786140991482645
-0.6234898172807654
-0.3401394646039324
-0.2928592862582379
-0.7572473309391066
-0.3256539105507369
-0.6636474266178491
-0.5304395572819476
-0.8374239419739186
-0.6988127622902254
-0.9662495787291895
-0.2491795102946982
-1.295260532035969
-0.8369059261259268
-1.029979203349036
-0.4087932121978401
-0.9205654143842505
-0.5048415398815738
-0.5573033882399004
-0.8384602971879067
0.07983900539832951
-1.253355503130338
-0.8749409456757163
-0.7922336293703112
-1.555622906398803
-0.4866396883289848
-0.1028102946325953
-0.6934215714630407
0.2814166609426482
-0.4003444752844669
-1.031866151413434
-0.1863347442378349
0.05805944173496732
-0.754204455044085
-1.77096372467344
-0.5017271737518918
-0.3035080512625785
-0.3361203695588155
-1.182144624925728
-0.7224913354278488
-1.545170703127585
-0.4918902198870634
-1.344752615584054
-1.132628939459773
-1.007832677479326
-0.230234580009486
-0.7236914284183301
-0.9922473725695736
-0.4239057010573666
-0.5542428510206103
-0.7803153311507272
-0.5811459913004681
-0.5820550406910854
-0.8018554633212838
-0.9189219763880264
0.008852939071045498
-0.5664014748184716
-1.090870417969663
-1.01135837875638
-0.9965952256175081
-1.050149425497412
-0.5295963816477791
-0.9233975657228538
-15.44933810419588
-0.9539430420696157
-0.8372055366990188
-0.2095892853677791
-1.089646337094392
-0.8339657896295991
-0.9030221544598568
-0.31212259694069
-0.6508181566010451
-1.257291631055132
-1.330958512963903
-0.2583296693355595
-1.295850167679216
-0.2580637263978017
-1.096433482664249
-0.3610732560292408
-0.8114021583406547
-4.206777777082801
-0.05292499264594536
-0.5026189674752927
-1.09229906187002
-0.9658035652123352
0.009513843873167531
-0.7644674164526163
-0.8749823431276235
-0.8564587410307396
-0.5804006183617582
-0.8176684121992451
-0.7299986622660491
-0.7246555911436628
-1.604930585984111
-0.6200709494611266
0.1750105330231777
-0.001621002686054686
-0.1207158898847412
0.02135189024887068
-0.5396679499346063
-1.407957060734215
-1.795308776832926
-1.500535399529458
-0.3836589674823684
-0.203460000419339
-0.314645411119979
-0.69065113350414
-0.1545425601010621
-0.2594895714172095
-1.182274959555905
-0.1675975941193515
-0.7214630832462816
-1.184812342101356
-0.8766901659868431
-2.045465180702043
-1.58274013748407
-0.98782219885961
-0.8740962568517069
-2.036757301088862
0.2190092616046187
-0.7718066027322535
0.2881702231114948
-0.768543397326793
0.04500731514313208
-0.08912623146965541
-0.2268621233965017
-1.275429668865044
-1.861319957182197
1.374068802945578
-0.1621383745694909
0.3568962422379677
-0.7547074542788019
-1.402685208951211
0.2981300341692404
-0.624185780300051
-0.2309605409186463
-0.3744334458744434
-0.62760814864355
-0.8447820558599729
-0.8718452414064151
-0.6929670003998293
0.2760666914863935
-0.6009143141219114
-2.927223361651958
-0.1141219800970539
-0.8050980416420244
-0.6827384587655519
0.1306344170319916
-0.8991537690495495
-0.9887594765331386
-0.01393740874596057
-0.1959568885663409
-1.851132872982044
-0.577594556842041
-0.0287997059536401
-0.07557726346243483
-0.006891690416847024
-0.2052898335560726
-0.7688790579019841
-0.2697832820484494
-0.03894059763819194
0.04768336215047005
-0.01654262454500481
-0.4803879871405345
-0.0436633626467073
-0.05632528847789866
0.0165660351911742
-0.7997122862568085
0.3293900755764146
-0.7192836686783296
-1.586666502283813
-0.4277809479392013
-0.4624420936384824
-0.0410925856673158
0.05086088715981509
-0.9995504348554227
-0.08735531083634046
-0.04575114251142719
-0.3718782256471032
0.01282937757684853
0.02242671076522275
-0.2376935715283043
-1.262160518690079
-0.8517093473535454
-8.085425735998454
0.132592797130773
-0.8216465338619685
-0.5797748211009782
-0.07027209127723649
-0.2121070104979723
-0.03486811037227957
-0.4063453268905013
-1.522121309357257
-0.6010006959010284
-1.491657975301626
-0.9459639836849405
-1.057026174035638
-0.7922651135073548
-0.1381676953577333
0.007147318117619226
0.08866924779745539
-1.296617691340378
-0.6879174078988594
-0.4984476761099097
-0.3649898995752845
-0.08237052275817401
-0.4187939342453903
-2.19939090614421
-1.813058969335091
-0.6126993799580682
-0.3739215369250204
-0.03914875141998628
-0.8355015106593751
-0.6572136192438706
-0.9907721118928369
-2.215155379446734
-1.482461492475512
-1.129674951305026
-0.3020139913678506
-0.2122191430369349
-0.6073368209837405
-0.2777572688034661
-0.70783638699912
0.2321942971129742
-0.6176023197650282
-1.379063766653046
0.1101458427944184
-0.4949970710850616
-0.6455050163720675
-0.8033841172081737
-0.519489038112831
-1.595322637196131
-0.6647029140790071
-0.1346103884731494
-0.1106263074526864
0.1283484816803891
-0.09889312668608798
-0.2430847025029203
-0.30204273663029
-0.04120075181459509
-0.9894607409615456
-0.4801671020949763
-0.1326050643418398
-0.2228703105591457
-1.22814725135831
-0.751598609502497
-0.5565514041853384
-1.646880850571429
-0.2915779989703285
-0.9815592184896157
-1.011703340081995
-1.283524747652458
-1.175823317524209
0.0194464549705659
-0.07497152880669664
-0.3546333927238469
-2.018465103117786
0.1754309510553643
-0.8995400970047357
-0.2325490686116715
-1.098878540551135
-1.622747918677247
-0.1743402210025039
-1.43836110260297
-0.8580583699401459
-0.866709138699357
-0.2508075612511083
0.5139931680592196
-0.4650530274125502
-1.842303991437848
0.004278075239263718
0.0954965126240109
-2.459610618169797
-0.2155667880701247
-0.68798712563123
-1.387935713374892
-0.4281491972577642
-2.324216228278822
-0.7919312040329936
0.284860457594075
0.05323506403155241
-0.8057812961465446
-1.409430514872353
-1.092511268194193
-0.8867286874632755
0.006002465316941474
-1.375312034292292
-1.003592657639379
-2.255160881943057
-0.9948992846604513
-1.170815332453813
-0.7887518009525952
-0.6269870061914261
-0.7714107783846001
0.08180957647180877
-1.325369935513287
0.5223410976122751
-1.244944437291122
0.05600387412333763
0.005421682652056867
-0.06017083448637574
0.1226247374698196
-1.123403994114856
0.03059460906145978
-0.1536409403277687
-1.541188448579527
0.0313429616337768
-1.315956619962278
0.1064042858142471
-0.8381015485579338
0.2361982947465664
0.3790386177859579
0.005299368189265578
-1.183318575995086
0.08120186303172199
-1.34566125897413
-0.3973605649578419
-0.504908619288149
-0.2397587541781682
0.1865712303996594
-0.4166256063302513
-0.4998418146490796
0.02842449377700006
-1.047557986289274
-0.9360164949154154
-0.4380488000847407
0.08113200023678285
-0.9177841600921236
-0.8947437929671331
-0.05756958303414215
-2.435188967860726
-1.752219957773028
-0.3609444007857217
-0.04115426199969773
-0.1626102820315204
-1.607833979317676
-1.8306929219049
-1.628046369900455
-0.1576348297196603
-0.2059370686123258
0.02730034450972448
0.2690797277989159
0.1387221430093019
-0.5379512655681488
-0.007071942610266424
-0.641229255127138
-0.2835572029968152
0.06056635222113679
-0.6540339147233283
0.1690644858946191
-1.232366934677742
-1.054868902832013
0.1166720445076918
-0.4124986773420941
-0.2651251672899336
-0.6084132748038854
-0.1539623983616773
-0.2219368093065539
-2.526738557335952
-0.8525295493823307
-0.8909468299405056
-0.8321160936515819
-0.6488404266130118
-0.2026866721138002
-1.031674040091765
-0.472040157833656
0.04561434444455005
0.01018746339395619
-0.05484392917165622
-0.9452951120089218
-0.2962080077104556
0.09279306893896994
-0.5162680821841784
-0.2985954564910335
-0.8048572469227259
0.1158690211059931
-1.642877882721773
-0.04957503419655069
-0.4107834484323519
-0.3359314962338395
0.04975279412083768
-0.2806150101251395
-2.526536373906679
-0.2306393998660586
-0.9027634887320501
-1.00360092716821
-2.665915387742658
-0.2597092861330423
-0.4951517835874908
-3.724979846772905
0.0435954451869533
-0.972484184796663
-0.2138979041116513
0.07777391069096018
-0.07757500995096711
-1.000180851341551
-1.903202731109574
0.5489175324374577
-1.133806132643029
-0.8232981015772711
-3.657724278408168
-2.32965636217195
-2.331953993830798
-1.01669353671453
-0.3839902431714183
-0.1310760515054515
-0.4426596067661115
-0.07114668637347052
-1.295976769444676
-1.245802385522313
-0.7025988697164589
-1.361769749690354
-1.957026547757735
-0.126129323156672
-0.9558810044507539
-0.5860527041649369
0.07011061745033235
3.299094437927292
-1.835755884486556
0.2025715591506539
-0.9583229166798803
-1.832466991310664
-1.073219316698434
-1.595371241289095
-1.026744939549831
2.866686833902095
-1.455081341753357
-0.9844232323251729
-0.2196309998340618
0.1762152635724072
-0.5001852890302138
-0.3290824160653716
-0.3063919442660739
-0.1912095833089129
-0.371172352973448
-0.8705376458084371
-0.6353929240238895
-0.632765638091071
-0.4621183873122995
-3.637816705887868
-1.212529548467914
-0.240445740401788
-0.4786646451765102
-1.734942858526596
-0.1682110703602781
-1.565228342817965
0.065050096951172
-1.72269768723333
-1.442109613140074
-0.5934050431213869
-0.4379310217271678
0.4366550329904968
-0.84316617718557
-0.2149146663931496
-0.2569734998198431
-0.3775504289404282
-0.07108427608299074
-0.3667449908929137
-0.06103040589736398
0.4751980791930797
1.141783428832172
-1.640848064319281
-0.3563136947438803
-0.4401356717827904
-0.27402477754683
-0.262015407206435
-0.04400401899065871
-1.746347861725231
0.08655517410259191
-0.7762310602273254
-0.02858242746432549
-1.4744874304769
-1.639748491406021
-0.01324976588884204
-0.5573200247674249
-0.2877445782593921
-0.1939221486496316
-9.44354000453002
-1.189708198013162
-0.6557147093652841
-0.4682939563075137
-0.02109645395133688
-0.2955606130443836
0.06375492289042328
0.4958599650695344
-2.997493533554755
-0.3319740515015612
-1.066830745859314
-1.409477495007486
-1.426936036931982
-0.2044908276600173
-1.822622046962076
-0.4035520077504801
-1.989292806430613
-0.646531044954241
-0.04180799762444776
0.245642935657113
0.008432766546102814
-1.112102783321193
0.2650531210837853
-1.41251715790583
-0.4862044975995226
-0.9212204449113187
-1.247902290846889
-0.1377147965674807
-1.271202148533606
0.08961408096736874
0.004161401022486071
-0.2718701571893535
0.3281445617915018
0.03245400168670591
-1.054167518412219
0.0615252754000287
0.06368589299906126
0.07152942117787961
1.614051048916714
-0.5829296486154153
-0.05537095800436233
-0.09616382304838164
0.1384570313855254
-1.066809736191104
-0.459766358898347
-1.869389981921754
0.03244746081562735
-0.1271983516807762
-0.08428329929074607
-0.3217162387671019
-0.004976662893432083
-8.64851972936572
0.02193689856479672
-0.7954978640778112
-0.3746960631971268
0.0332851645950052
0.1282858866063503
-0.5467512255392357
-1.074882096686639
-0.938439344883109
-0.9489516229112592
-0.7487162771471779
0.09753735199627794
-0.1738182608243602
-0.2465774549960834
-0.08106457973633074
-1.394334145821991
-0.1436046081381353
-1.166054229779771
-0.4123832835216536
0.01754701125137655
-0.2925944316427461
-0.02135501862953539
-0.1931392563065481
-0.08598777617072476
-0.01911703995338947
-0.7770016230019382
-0.3799604071273345
-0.9443324300809107
0.04378565948271058
-1.416794191565807
-0.217514428617555
-0.2221093296886381
0.9745684339854596
-0.7375223757389464
-0.9701704757087354
-0.1032339375519732
-0.3746291964625352
-0.657947636811846
-0.1646980567408173
-0.6407448590608447
-1.439413678513977
1.985499255572655
0.1416678359638582
-0.1871310764747884
0.2226228467949019
-1.162857818248004
-1.69074189435672
-1.14718453399617
-0.3984929343068229
-0.7636893986696511
-1.082042717501169
-1.301264172338152
-0.1814960981106572
0.3982856848870173
0.07961761390907496
-1.194193772213955
-0.3138487835073872
0.05872607401278281
-1.132087280639821
0.1554673151335193
-1.684622429717092
-0.2116194990428451
-1.422765856163355
0.7114539907250506
-0.1967325031028401
-0.683672774121137
-0.02200459876976459
0.04099770849300366
-0.06474673362539456
-0.9645589227742406
-1.150956144014443
-1.001338953660633
1.13136403881833
-0.8060571062858343
-1.499910112192809
-1.046095445720288
-0.9478919064518891
0.5545377392615137
-1.587381159432511
-0.7216390480521034
-1.955646266790316
-0.4647287703385704
-0.2801659526453033
0.02736117555447835
-0.2978443626102875
-0.8530906737263622
-1.243758623588582
0.06551230923360524
-1.475870036586208
0.03654336346312597
-0.352573736852547
-0.7677644827813332
-2.212334255775961
-0.7145615834857127