/*--------------------------------*- C++ -*----------------------------------*\
| =========                 |                                                 |
| \\      /  F ield         | OpenFOAM: The Open Source CFD Toolbox           |
|  \\    /   O peration     | Version:  v1906                                 |
|   \\  /    A nd           | Web:      www.OpenFOAM.com                      |
|    \\/     M anipulation  |                                                 |
\*---------------------------------------------------------------------------*/
FoamFile
{
    version     2.0;
    format      ascii;
    class       volVectorField;
    location    "1.1";
    object      vorticity;
}
// * * * * * * * * * * * * * * * * * * * * * * * * * * * * * * * * * * * * * //

dimensions      [0 0 -1 0 0 0 0];


internalField   nonuniform List<vector> 
19631
(
(0.006638868918069598 -0.0007496996537608689 0.001769733098844184)
(-0.2236658228340347 0.1234551569139991 -0.1954874029668107)
(3.534248760666772 -2.16096382138016 -1.618197340738142)
(-1.518621357509297 -6.889094039735832 0.6470631195005794)
(0.005717970076633559 0.006704680432704146 -0.01191644104642652)
(0.0342808056016243 0.005987231782563898 0.03404889909657986)
(0.01142013599540776 0.00820933839679687 0.01330829995252468)
(-0.100920035748215 -0.1611025638298077 -5.622875052162276)
(0.0006088212213890311 -0.009507229177674589 -0.02664951037471493)
(-0.01093856082559502 -0.0004201105669043847 0.01215190868903837)
(-0.02604497255693473 -0.03703487172572843 -0.01920971216901849)
(-0.0495095807495582 0.01344169320847123 -0.002614952096295566)
(4.767777710194858 16.09239764928817 7.200030571307832)
(-0.02736105751654277 -0.01448800373581767 0.07154071146814744)
(0.0007022138941278656 -0.001601787510661992 -0.01092484556486536)
(0.07521876952875092 -0.0540637945353787 -0.08024614530429126)
(-0.4538349520381078 0.3688473753944859 -0.7234714725696235)
(-0.002652734564578531 -0.001999286412426444 0.005767603417981343)
(0.03151830646326419 -0.003180277754271759 -0.004615366702696569)
(-0.1319206585654831 -0.5681047860785062 -0.3139837556117249)
(0.005910772883912812 0.003064809994949254 0.004198582058674343)
(0.03242454971771753 0.1675303125563635 -0.06743702714462552)
(0.01436827440541526 -0.01551123790090048 0.06121015310853946)
(1.067547511964121 0.625244937637241 -0.3987052232437882)
(-0.0102010078506045 0.006311266968628854 0.003670063254374158)
(-0.009652672879390593 0.02776954424902477 0.01001287045501539)
(0.04694830073811262 0.05306324337530084 -0.005916310660179188)
(0.02466012324770155 0.0263875148438001 -5.938897488647462)
(-6.820251698240908 5.762267776507281 -9.902895280483415)
(-0.03050527646880269 0.04704015051936632 -0.10097359696504)
(0.001370834056222712 0.0003510784710512722 -0.003798640310062558)
(0.2076520642715622 -0.3823507124107737 -0.02689306624976172)
(1.67137528675822 0.008374165009513712 -1.670889555046831)
(-0.01776871771419016 -0.01320588347337508 0.00151397273146337)
(0.4240866399081449 -1.4593419978151 0.3218574623756097)
(-0.01956295160098508 0.03748479469253921 -0.03202130240385073)
(-0.03780338512797528 0.0469277505610317 0.00899142859064642)
(0.01043953416865925 0.00031222793686811 0.001884676990991856)
(0.1329360676547466 0.4074271763877456 0.4324689957471723)
(-0.01461301056996296 0.1581926077144024 -0.0006153034211309335)
(-0.662860822773734 0.2170146102406726 0.8102656944043919)
(-0.496242927724208 4.842048807334424 2.044150037066171)
(0.03180811071307769 0.01894805835934395 0.01955996152986791)
(-1.055482262362533 0.7714055982800428 -5.428493202668545)
(0.6028428128873743 -0.05062239272102741 -0.8475749573473963)
(0.4136124771819042 0.4932172434235243 1.612695581227342)
(1.054322761254335 0.5570727965477409 1.441705655261203)
(-3.871008616271751 -1.740840482097304 -1.298896015527091)
(0.04258872633570861 -0.007356580673916202 0.01348010752581135)
(-0.1295972142558829 0.04054377113259992 -0.03918511110843394)
(-0.01006415481650921 0.001735627962610558 -0.01487575991119932)
(-0.0427361840406889 -0.06090215266445656 0.05201654107138647)
(0.06729090050053495 1.389878988656551 0.7587277554371334)
(-0.06321720724373971 -0.0006842684652133627 0.01306016832424884)
(0.002144495198763575 -0.1104226235829839 0.05756029953665918)
(-0.4050971699102062 0.3572554116861812 -0.2584817994526387)
(0.457643403767819 1.155532047980973 0.147315787702148)
(-0.009860370330634947 0.004674109550753184 0.01037933946215026)
(0.2588664366305893 0.09690796374969302 0.08978399844448393)
(0.5646945373699815 -4.964111626873464 0.3503636460773389)
(0.8038472354190724 -4.007132960639704 0.9509004312455661)
(-0.1142386303126201 0.1825543335568527 -0.2907732844250834)
(-1.236043173734342 -3.738623014449494 0.07788519853298845)
(0.04674466760852743 -0.04715142417107467 0.1231712203092099)
(-1.341053997548683 8.160528989555669 -8.644527674112126)
(0.130905870498718 2.080297007185214 -0.7622286013268538)
(0.0445007756735094 0.01539240931404101 -0.02773517043373264)
(-0.02299111584161769 0.09772435768924817 -4.749435744078756)
(0.5216426512934094 -5.055206343676783 -7.471395034040218)
(0.01258913366218892 0.03646303944872611 -0.03302297722412295)
(1.999077373882756 6.14233167226671 -2.735641509315312)
(0.02320105842169595 0.1361420082041941 0.01071635151507956)
(0.08838638088400305 -0.03009167993526676 -0.03803284739371219)
(0.003646381630832307 2.695421725059145 0.7648055805960789)
(-0.3123169018536981 -0.008421839273760424 -0.04504039249778005)
(1.006785127464316 -1.292053123260325 1.007203893580403)
(0.0169085644661049 -0.0001056081707138702 -0.001391545372855536)
(0.9950657610167389 -0.7763519458309336 1.101930679796322)
(1.919957532351898 -16.22282212525128 3.012441447926097)
(-0.004714384834231386 -0.002243652946890428 0.003633851908543612)
(-2.439801717171573 -34.96018481656708 -7.355795949213934)
(0.8052775788923759 -1.10872561717898 -1.610635864185104)
(1.51462993928458 10.77732128319106 -1.588335176628509)
(2.287778101282126 -0.613726433183584 5.009411944166655)
(0.2419422871998914 0.002381045085250083 0.1279574735304645)
(-0.3496972620953397 -0.09037736711543837 0.1770531360965892)
(-0.6002608410027381 0.006809536634654475 -0.08091879347881202)
(-2.322652852870909 -2.2567377005732 2.869836061579144)
(0.04090998764608735 -0.5027898991065385 -1.49748075616495)
(0.8197762786750513 -2.351806794090437 -6.614795464411197)
(-0.4690888766022606 0.2445212791171345 0.06203063138184121)
(0.4933832222447682 2.795712851905828 0.4632714445336928)
(-0.6782500278443564 -0.3821838387608638 -0.4874402857702184)
(-0.3522783386809594 -0.1871578556430554 -0.1730326090197217)
(0.03111501167881506 0.1923502332258998 -0.1513176361256531)
(-0.2501000800507223 0.5850663852657657 0.03162863700031122)
(-1.207232511662503 1.522720325572411 -1.468912693513243)
(0.06965127123208098 -0.1782598858585201 0.1181197336607012)
(-0.2659032358952588 0.003154659358214726 -0.1365290469361731)
(-0.01006974431496875 0.02216904811960135 0.003196572385867482)
(0.02056112261088262 -0.01132729332345273 -0.008633836742835266)
(1.194826350173775 61.27003544677649 10.02652288427942)
(-0.01567132883281702 0.01394379247948453 0.005393487195684099)
(5.180193122863704 48.70967299477667 -9.106783106820703)
(-0.2711219747274919 -1.144357110767724 0.7786430680020939)
(0.0548106874626689 0.02827415700484384 0.104049816703837)
(0.1155238569778958 -0.00576705840658303 0.007218626264002968)
(-0.8661727358370828 -7.296544659960803 2.784896323308268)
(-0.004818521414656204 0.009052739821953378 0.01330074849924903)
(-0.009631450807056689 -0.02343507805529941 -4.575289125743954)
(0.1610312210844076 0.133347767686257 -0.1370840366350562)
(1.207299765864189 10.08229329189668 4.102533025007395)
(-0.01499785317579582 -0.001142501874036609 -0.009376613723173152)
(1.196464754295491 34.17396675615294 2.201378396347696)
(0.5212217536595165 2.209589466102543 -1.896573104201473)
(0.1884235967342396 1.590918669516385 0.2774944764215304)
(1.068531868563163 1.580158830699982 -1.586945938013168)
(0.1113694495534094 -0.07073990889934993 -0.07832199382402527)
(9.877966464960933 7.183683878228122 1.441629838276576)
(-0.004016721291634192 -0.0003325713439229651 -0.003001985181287205)
(0.1558621460281395 0.04995884929976624 -0.06310679663778034)
(0.07855609524682536 0.02451714150963441 0.03971773436465033)
(0.02097173943538373 -0.0001134240195575288 -0.01076470285372971)
(-0.08794769639246652 0.1881204219763105 -0.1637956164291037)
(-0.009060854921675535 0.4454611430870462 -0.2135568688634195)
(-0.01440996658752041 -0.02471414424911541 0.01719057806171329)
(0.04439966723887828 -0.008518501139411112 -5.495186328776936)
(0.0008059793375314898 0.001480695846461565 0.004284014960540814)
(-0.005957418430545365 0.004328868878717211 0.009486906779922297)
(-0.03098448154515257 0.01900431164258956 0.009579775876983089)
(0.2188769765377144 0.0488801035972485 -0.02807081190087994)
(-1.13427304340134 -0.4141034552571529 -1.862781771241996)
(1.170054831870821 -35.1184782300362 3.07249451281459)
(-3.836730047916841 -7.731948120217707 4.961441449821262)
(-0.00390487374507777 0.001944860307537985 -0.005375802721731811)
(-0.03316654734716303 0.01790427961451883 -0.0282729213811687)
(-0.03398524056873278 -0.04388967798318393 0.01414658564493832)
(-0.2948475196006538 -0.2068439506847236 0.1503123190934805)
(-0.08641919551084228 0.0460309756405636 0.1529805120692528)
(0.06180567541377958 0.05615191849533748 0.005205993593289597)
(0.04536748445008377 -0.1324929437260553 -0.1269934771023294)
(-0.06437669610751577 0.4253731449499417 -6.844366054304664)
(-0.3640021704065528 -0.6210125966779052 -0.1802830810749807)
(-0.1799949051862909 0.01533880894588464 0.07494984421347636)
(0.1967451657956822 -0.1020706889946112 0.05001233738184636)
(0.09902634262513828 -0.0001914210968065912 -0.0485193377597817)
(-0.04638837746302334 -0.02672786034998316 -0.01324925733816757)
(0.05527180412192929 0.04076464494409422 -0.0006765865604224091)
(-0.5084014462656343 -2.575918354223831 0.4862098413465815)
(-1.102163372084327 -3.799128945490409 1.551867192850291)
(0.01014585166677619 0.001425678865500763 -0.002961124022956025)
(-0.0132716064130968 0.01458844567661304 -0.006101657003496467)
(0.013708255960116 -0.004431079027162136 0.02450121073156845)
(0.005195949382821954 -0.06776944630367038 -0.02562686775226003)
(0.01061260927609662 0.00324072770549416 0.003425601077364259)
(0.0142672088641841 -0.006186550182564442 -0.06322320564831362)
(-3.510702531339661 -2.820636410937575 -27.46696474698442)
(0.2377707454729445 -0.1634484066391924 0.05213216103424487)
(-0.01490704593354981 -0.03136822657120335 -0.05867741337348711)
(-0.04138983225432954 -0.001425895851355954 0.04095714070276743)
(0.002757653171434034 -0.03095921971443226 -0.01397008614684097)
(0.001397495585191739 -0.05911282689396889 -0.04812719060284189)
(0.9851944026814534 4.787993308611744 1.65855513628871)
(-0.04001036008455238 -0.05069350772881707 -0.03141628576036446)
(0.01832576346944353 -0.01471078265949968 -0.008822385980097778)
(0.01671319868657954 -0.004501312310047015 0.005105039196384699)
(-0.001425514495781731 0.0004961075120639355 0.007083162626830973)
(0.04452913502858256 -0.004419240023401145 0.01696410045240486)
(0.0009397859348740208 0.01385728025889356 -4.20880247367853)
(-0.8754969884982263 -4.262632223086026 4.494509161008025)
(-0.07018718751586893 0.1704718180502977 -0.3095920072557493)
(0.3693436397432157 0.6959612029028182 -0.9787248699824188)
(0.3349044208429738 -0.03250184797848232 -0.5224077840460286)
(-0.1628091871123661 0.309497245528513 -0.2355196472925397)
(-0.08616557084880049 0.0002937620626135701 -0.07915928159088814)
(-0.2342730708195546 0.1014694865984235 -12.99066260450385)
(-0.02427954873342171 0.02087692896006579 0.006727852170042264)
(0.7992134315422854 -4.423289192674954 -7.851826436334444)
(0.01854575918513584 0.003839140726266165 0.01352059008144119)
(0.9618639448612122 2.464708057642021 -1.020031846479258)
(1.129322795829697 1.535385933188345 -0.05042449428902401)
(0.000688081838167035 -0.00526286184422587 0.001222740243378881)
(-0.009462642332129546 -0.05288401286323173 -0.009038519949551134)
(0.03359674286131382 -0.06297215520251623 0.04641395147874339)
(-9.436471023984069 -38.35413953932621 4.016738363871295)
(1.107400882621909 -26.30510675165158 -3.105781914887585)
(0.3346347794223021 1.534427349853088 -0.04189507113448282)
(0.002834329520149199 -0.01221321547422866 0.001477776673028272)
(0.001149314428891601 -2.698641314826663 0.6057121591286764)
(-0.01269732489726775 -0.002716952966603358 -0.01703473743788991)
(-2.253924728830962 -28.15217766653373 -8.385276611266038)
(0.5149409617520576 0.03053549710935815 -0.2702124553116884)
(0.2661085273431133 -0.3628533830564288 -0.170410772496807)
(0.03526494372310383 -0.01514269292895604 -0.01761861820064656)
(0.3467794308666705 -10.05552379121566 -4.827648488621156)
(-0.337752641432242 -0.02618824963018107 -0.207834491128684)
(0.01235978271760136 -0.007707281907401912 -0.001679301533186853)
(0.259977651334396 -0.7910283853621085 -0.7749470814663458)
(-0.689580548754563 33.11947025234767 -5.516151683320041)
(2.481889744003937 5.109034543928696 -3.801176170308014)
(0.01505336607613483 -0.02514716705162112 0.06444993942472835)
(1.91198128556703 0.2100185275923537 -0.6433318029592905)
(-5.61638494577408 38.5288324163154 1.851308820346516)
(-0.9972206933333401 7.101911457705549 -2.05158929736032)
(-0.006521340651996081 0.004576553848421509 -0.02549912211543299)
(0.006989200187701794 0.005645168286613342 -0.01599331785338355)
(-0.01860789928964145 -0.03300699073434331 -0.02605181220120476)
(-1.265887204086428 7.694476992004814 -0.5273667666152568)
(-0.02314850351080758 0.04520081504067228 0.046718900625329)
(-0.0328757186674939 -0.03507934525728944 0.03197192586916911)
(-0.01250763942607578 0.007563210842415631 0.00749286745089265)
(-0.06242755246880866 -0.1334484046746011 0.06713402881033288)
(-1.285152161802376 1.324069489863336 -1.11121466143972)
(-0.008827940160612923 0.05337122333612888 -0.03422639823545421)
(0.3224750974012535 -0.01189399726887153 0.1735300999339811)
(-1.804228582487754 -63.09566727077738 -1.922137296697605)
(0.1235004456715437 1.346273939526303 0.01662322555826568)
(-2.808831480469167 -4.108421396530727 -0.1678895396872995)
(0.01677436313902956 0.02870539718246787 -0.006465059413116443)
(0.2249480700000768 -0.9975778797243442 0.3325929128523272)
(-0.002056389940698615 -0.0009485257245985292 0.001719156947677176)
(0.599515336433774 -2.624898602073939 3.180123753689553)
(0.01196743177029931 0.06434499148505632 -0.2093309951019398)
(-0.9347647491361151 0.1034272068248202 -1.625133614023996)
(-0.1944214419884354 0.1918235793591269 -5.671785070709063)
(-4.028730968548048 5.921747001352347 1.143377122530071)
(-0.04626196646949812 -0.07532618644301019 -0.1209167230117144)
(-0.005578916980257382 -0.02322435379092729 0.02098668099427154)
(-0.1784400231608499 4.452137710786007 -1.013548504992354)
(0.001940587906324898 0.602742764816727 0.2863648480621077)
(-0.4109969869006626 -1.782474150345582 0.2057325490231145)
(-0.2599895961685958 -0.5137259841590146 0.3680522497963746)
(-1.129734084072986 -31.75423755298312 -0.4097175706409839)
(-0.1674878642062946 55.97053967594356 0.01908894152942608)
(-0.005358400432758557 0.08665357830461953 -5.930677467652847)
(-0.03794058122620651 -0.007893076746052108 0.02154193949383418)
(0.3942257318355135 -0.05272865330973246 0.02367044118334214)
(-0.1269535578271753 0.174044505050573 -0.280041322488166)
(-1.540905794540323 -1.943312810037639 -5.419661939974629)
(-0.03307442594172211 -0.006254080554553419 0.04735984641284936)
(-0.004453636726604978 0.009616421224382679 -0.01332099893174417)
(0.003104206190314249 -0.02182165376888817 0.003980895007285795)
(0.08642861915759421 -0.0532805080235681 -0.05163165589954412)
(0.002565243888708055 -0.0008461151079633962 -0.006636910695544718)
(-0.3147766377105587 32.88136538611676 -2.998839343464485)
(-1.256221383820527 6.783822119926478 0.7453915562222038)
(-0.02196735155687367 -0.001336640724572736 0.005298136094543071)
(-0.0734728957303509 -0.2697460409469304 -0.1430698923301594)
(-0.917787460071964 -8.469298120135385 -0.5157937066020551)
(9.907336906695885 17.28813118464076 -4.664859436299292)
(1.247707068375771 13.6659049276951 2.368863324290337)
(1.017019137947902 -36.23479991750271 -3.113005563707963)
(0.9513219392187758 1.041084580585112 -0.09318785092028559)
(0.7210412503387819 -0.6399342809609935 0.008597362826827624)
(-5.218974297609068 28.45826406501694 2.911256350617105)
(0.7608305200775415 2.251911281326309 -0.5267828864365549)
(-0.2051377547078871 0.2352639782454777 -0.1249690136815999)
(-0.2506352736270966 -8.411415911696285 -1.65172715022783)
(-0.01974560987113185 0.01665318327650167 0.0158081364385835)
(0.118078604022234 -0.2362076312309898 -2.289166885481111)
(0.592343556713289 1.478147579640222 -0.1600100340041737)
(0.0202580639064513 0.704379092946495 0.1136650959210809)
(-0.0513677866359479 0.09919716850341219 -0.06986162543565048)
(4.647750569523086 -1.789358477479903 -5.85644977626503)
(0.1161514187179186 0.04897741204505611 -0.08407669498161982)
(0.4191828148679702 1.672961959672989 -0.6992031150382987)
(-1.599299034326227 -2.816848372328258 1.94770691259165)
(2.940782863105665 -11.49971266035931 -2.018863228319824)
(1.628087027076182 14.02655762759668 -5.512205649972274)
(0.04743691514933404 -0.6048993513061265 0.1554355605307979)
(4.529990388147747 2.520987833048581 -2.597895796008211)
(-0.1122090880468332 -0.174301202462652 -0.09955269897929089)
(-5.23059306684126 -4.414397090493659 7.566676101956586)
(-0.02115053244989605 0.03391512833826549 -0.01941397872658109)
(-0.008676888713955833 -0.009758647349505028 -0.02193868058393146)
(0.1215890589390756 -0.06723719632757834 -0.2711686816183628)
(-0.5447491244655018 -3.359765609117222 -0.4190178014478601)
(-0.5169127890751086 -3.367212224918385 -1.103479071181319)
(0.04670303567426669 -0.002963863293653245 0.05008663391946516)
(0.346822244529336 0.3438282029234443 0.07811887796248149)
(0.4615753090549983 0.3491352387854105 -0.02371624465365818)
(-0.2744094803632602 -7.168554460632605 10.04077300930136)
(-0.01366228385805494 -0.2702257349845422 0.2812004939261712)
(-0.1590304165577336 -0.1757266734476756 0.3817547068574417)
(-3.22083409313135 -0.9324921615103071 -2.98192402323553)
(-0.1381558901963696 -0.2155701633313381 -0.4008513790563999)
(0.001203827639202093 0.006162308268061445 -0.01011737534869133)
(0.1821146125575301 0.02838438191750401 -0.1162450421886115)
(-0.7421121026620384 -0.5920231904359944 -3.641067975080113)
(-0.04438650017176365 0.0351438813810018 0.007553567470143477)
(0.5896734910166446 1.906729140788003 1.472089768288267)
(4.733937830833659 8.296194873020234 -2.652443689070187)
(-0.1619407239401541 -0.00073433515086219 -0.01268445155072523)
(0.01933933071700573 -0.005248761352652133 0.0099436477442814)
(0.0004766359346493107 -0.002440880756588146 0.004121043319130397)
(5.09071159290484 4.637079641181778 -9.04583334930439)
(-0.03545173071964752 -1.226027989528378 0.6340259413457405)
(-0.3681150496698075 0.1814882625147735 -2.172654217225318)
(2.326184670667066 -0.6467503771486625 2.391245021553988)
(0.8605321448792702 4.900635241370285 4.620762980926489)
(-0.3598569507636312 8.245818814924172 0.6691509559408)
(-2.03007655709334 -0.1047399493173019 -0.1854883200713245)
(0.02331611340351578 0.04847370104760186 -0.08951207422528734)
(-0.4998849113704228 0.4632043558000429 -0.07056947926296445)
(-0.9668308149817895 3.261706834683297 -0.1534520849279694)
(0.04621926769244653 0.02853867400461307 -0.06981161979758915)
(0.05485530211452305 55.27126499575689 4.305565921060372)
(0.02010475052980048 -0.04747334528773065 -0.04338812068093514)
(0.003213390344920725 -0.00621387130317088 -0.04692518158319866)
(0.004248910514737712 0.03694415492426947 0.1069748328118011)
(0.008791922756024435 -0.05262910796353036 -0.01037689184677275)
(-2.185401707555614 36.4305451178134 -0.3678368207044453)
(-0.1950093922441221 -2.475040453016513 3.329550181585144)
(0.01530696071196028 -0.03566539417662942 -0.007290247457227242)
(-0.01235075720063653 -0.003131415592502809 0.01653272710904284)
(0.01211503374277662 0.02632098124285229 0.01054310235797862)
(-0.0004208461384386357 0.00032306868154408 -0.00466096728898965)
(-0.003557711771720077 0.001334608708221702 0.001875378337733967)
(-0.6808242894827646 -4.434964242449539 0.04043912652642001)
(-0.001508292502258073 -0.0006482104493044702 -0.000973748307811322)
(2.134890127794576 1.535965782644434 2.633735743889558)
(6.282043923878071 44.00919216577312 0.2042734702099396)
(0.3294190183607832 0.9924009473413884 0.04145615961796739)
(0.01438338242288791 0.0204876898030114 0.1903651322276133)
(1.087118805627358 1.940625181885337 -6.083783601205313)
(0.6127960725279401 -0.2277706006658209 3.303167814732921)
(0.0355855171922989 0.3327189105631936 0.05765540590326591)
(1.514477922468828 -1.347038467954388 -5.363349208901949)
(-0.02867674077545976 0.06664602366855214 0.1912976456724513)
(0.4447199393250174 0.002495290868301248 0.3318120748372442)
(0.1842347228517174 0.5416487141823821 -0.1773150172426268)
(0.0289830854775537 -0.07933060951502001 -0.007875588162697237)
(0.1281233407166602 -0.05205461410216414 0.1221195726818902)
(0.02701674964744405 0.4526412238807389 -0.3606067676053993)
(1.149261600485795 -49.32812739497591 4.904759327106522)
(-0.05082578752903826 -7.481646516006163e-05 0.01641530644071409)
(-3.157930832338979 -41.11288929549485 -1.688080679030674)
(3.640621424161506 5.342532986600524 3.70571701299866)
(0.007091453899434064 0.0009087880917611809 0.0007151726250999078)
(-0.03430392008309806 0.04729364162198867 0.007475344970981505)
(-0.006926318241865369 0.002177397750796181 -0.01514993627318946)
(-2.004147866000389 2.463308066471881 0.5757849152588975)
(-0.0160902961543679 -0.03212540328216742 0.002994926745571963)
(-0.2387685832384159 16.35948029327413 2.712211738620716)
(2.993485260294144 -1.862211694087038 -4.090037289110904)
(8.507662687003121 -9.470320950187084 -10.94628355447308)
(0.09139388397138393 0.05906048170274769 -0.0144055748879114)
(-1.444692996738707 0.4518587696234259 -0.2508446846179495)
(0.0643084742850179 -0.005169211696667305 0.008229919106761093)
(-0.3262199593053479 -0.02143800253823542 -0.07295102388438995)
(-0.05582431279527324 0.01701793185393659 -0.02716776211033218)
(-1.003286198308848 0.06470359364760414 -0.6654459449771695)
(1.610174820673766 1.208372147677706 -3.584329214674163)
(-1.108018370540291 6.425032768341093 -0.1667084118931679)
(0.1211892123633011 0.01181688108668766 -0.03060994387597688)
(0.1621265027098535 6.187844421330115 0.5175254539722556)
(-0.04933012513819593 -0.2437199015713407 0.1627031993908784)
(1.059754487521654 34.09713000332707 2.228203104083763)
(0.2252839283936111 -0.08575627084538499 0.8573509867665809)
(0.05721079948135668 -0.9172208795077994 -1.031907187999714)
(0.03933644483360459 0.01366074286605395 0.02012368261511746)
(1.806194243282756 8.807144512481511 1.326790180663634)
(0.03640525549192836 0.130176933914775 0.1341200921128891)
(0.02189856020673074 0.03342210092451518 -0.006346983386034569)
(-1.755340593753233 0.6117012002637261 -2.405481527803563)
(-0.03409392274595672 -0.0121617373605334 0.01986974027695682)
(5.553157163191199 -18.23764110047549 -8.204509464545922)
(-0.05786041693686524 -0.0009657068998093123 0.07802039663109778)
(0.0508911119516769 -0.03905103723094194 -0.03720349291938958)
(-0.9488892761078733 -1.210576083098679 -0.8952427757900678)
(-0.005053519715963575 -0.00174937630163238 -0.002388171939131374)
(0.00461537524988423 -0.001429978348123433 -0.004444181379569288)
(-0.395245399862821 -0.03523690073961833 -0.2755631441731139)
(0.1359812501993462 -0.003931627425966616 -0.1053929854816602)
(0.1348632789967281 -0.01720732763794336 -0.01861418120149569)
(0.0003716351259888989 0.002029842625458511 -0.01303957957404683)
(-0.03708044198553662 0.4231746341004763 -0.402123984243688)
(-0.01394474810763564 0.008443568549502661 0.003527785022454327)
(0.1358174052166589 -0.005925395406056855 0.008480077780774463)
(-0.0009399400554302856 0.02846438524544046 0.02195457260128308)
(2.082891012208608 11.56021776969876 0.4943716137534559)
(-0.02564503348207759 0.003560584120103146 0.0008154595003035982)
(-0.002356223589724769 -0.003258075042204485 -0.004216575694730531)
(-0.02258518267305031 0.002732386042030191 -0.01642530230309058)
(3.182991702172354 -4.533786320264362 -1.851111100807394)
(-0.9150582243687404 0.01287616170856459 -0.6455736706807745)
(0.0299512220767679 -0.03334151868164004 -0.004976110648124858)
(-0.0113731580670085 0.114731146187457 -6.628620041255607)
(0.03828802224715621 0.03158030209085566 -0.01423617287136107)
(0.2115986440347908 -7.170378468635266 1.088631397314309)
(-0.7904833990871203 -2.934440826152196 -1.585981151366163)
(0.01340650978569927 0.003851432577364574 0.004903603742557446)
(-2.851245076382765 -3.467545775269154 -7.113291366185303)
(-0.7931935921820483 -38.46950877140745 -1.057186930508146)
(-0.213847005625989 -0.6683834130050946 -0.4104109898711976)
(-0.0003053159890414697 -0.002367418020069627 -0.0008433321242297888)
(-0.001645261630060974 0.0007774113810552447 -0.004199758572101624)
(0.2089591318965096 -0.9417920734147398 -2.145438848687202)
(-0.3369224324408726 0.147331472141376 -5.650534257010308)
(-0.8901566903980788 -0.9641739674495567 -0.5014540540132307)
(-5.382299191809246 -59.54474100443299 -11.76480256220068)
(1.765030979675522 0.62572247902292 -0.785833132442356)
(-0.2292058891252017 -0.251909298213737 -0.07821368889688937)
(2.245668993246047 -16.3161504871513 4.696077493877823)
(2.771750106307538 -3.471697698625752 -7.331864002343393)
(-4.599377048943095 -55.0263386077954 1.717917524983198)
(-2.61138474603522 -2.486796110065861 3.049577714854069)
(-1.446004624678171 0.7135675311135188 -1.493652376581089)
(-8.641324064372981 -56.87328506545776 -6.676295335690334)
(0.7197590546197516 -0.9063597792034479 -0.3890895091189983)
(-0.7701395666221469 -43.96761270550322 -8.189657828693662)
(-4.066167673590294 -0.677761742335671 4.652306919814006)
(-0.8441994962130321 -0.3116828261016972 0.1511083800923211)
(0.3323784720086193 0.4752205534336401 -0.1093775552100336)
(-0.0293328349140912 -0.02142648775956096 0.06504550188118498)
(-0.350503597839124 0.05226237718117988 -0.1822262359311732)
(1.765471738744983 4.480491953405832 4.538555515957816)
(0.1824286201995381 0.1251525358083665 -0.2202257470760723)
(0.1894077981785829 -64.37936882873723 4.473801888941362)
(-0.4119972358651435 2.266334867729446 -2.551826221162179)
(0.07307230392565048 -0.02850470103032122 0.01377485538292608)
(0.001963745887428809 0.001609804013302129 -0.01510103823587518)
(8.227363616058806 1.389830497239129 1.307692241301065)
(9.761479555590316 95.05678866740661 1.009275075902318)
(-1.089278995267713 -0.361139022409888 0.7120438354478268)
(0.004055621970751764 -0.0002463238972268168 -0.02634177342394821)
(-0.1360496081039561 -0.1197021749012621 -0.04890167343618854)
(0.1457878488281921 0.03226322293197159 1.030624324150352)
(0.02138961904646077 -0.03365945581760459 0.01500307405428888)
(-0.03704762275228578 -0.005631433201096045 -0.02285959139385544)
(-0.0131256890041026 -0.08777268730653834 0.06061680500374424)
(5.436253754400004 82.48559334466876 -5.282190633822693)
(-1.482513391143994 -1.517113310492363 -0.2259593085446254)
(-0.03105342388228955 0.02638143371306214 0.07559898756731367)
(-2.80370355598785 -2.720933351345682 1.266388326732897)
(4.818771659142834 13.21048011686525 -2.416830773246612)
(0.003714278194084285 -0.0008389622727652936 0.001839385953276452)
(-10.75583569569992 -17.96105049138331 -1.725812488581567)
(-0.6772185138715742 -2.025397246141359 1.463803062604094)
(-1.126117286002479 -1.193073858188389 -5.866391143138181)
(0.0008709975557334832 0.00213608257938265 -0.0005636759332335404)
(0.6961901084728372 -0.579263034878251 -0.09987616256272902)
(-5.687262457884249 -5.579915939408407 -1.202108872572354)
(3.071753560171765 4.058843321788513 -0.5492673610032713)
(-0.001877568495445018 -0.001538262810527445 -0.01322491547758056)
(-0.143983217406233 -8.178714448423976 5.141874613862067)
(-0.003467263761464424 -0.0009642773489223228 0.00356608261681693)
(8.499450284832353 1.893926879713349 4.108934797786407)
(2.855304865150578 4.54064977540016 -37.51836546134442)
(0.003145658350989115 -0.0001270224661780242 0.01999872264064153)
(0.04592803084385155 -0.54982230716755 -0.4933589679387542)
(-0.6911197352016524 0.8298881775806641 -0.08942599410058918)
(-1.854806679919059 8.294624502704917 4.844736106066359)
(1.510513007897833 -5.569192490642333 -0.3797592180981605)
(0.001075954013031696 -0.002359310055111935 -0.002502479487163662)
(0.002343263141015902 -9.125361975878969e-05 -0.0001908357306843556)
(0.02280328261931998 -0.04841413643578288 -0.01791549696077466)
(-0.6556389089732749 0.5154102435738903 0.1659574181640773)
(0.003559910765494279 -0.01248638149330755 -0.2722922959198478)
(0.09057698732631275 -0.01513099292975892 -0.1661924726886254)
(-0.1086859099372045 -0.2931821117450895 -0.01710526019379977)
(-8.229838130831019e-05 -0.0002817960948656984 -0.00958130360980943)
(-0.03198932242024786 0.07820204246774101 -0.03021624660573264)
(-2.273516478577993e-05 0.002417316680627505 0.0006740640117169194)
(0.515416621335411 3.636772642498438 1.428750488940146)
(0.0133214809132339 -0.006825783909712451 -0.008704743816881085)
(1.718138860746574 -0.3706233370359959 -3.220965932092385)
(-1.360379486076676 -5.927445578335526 0.589875981764089)
(-0.007977271187077391 -0.03009080950038739 -5.965494697975144)
(-0.5111121252541789 -1.767859415259118 -0.3314184825571478)
(-2.148081901395618 55.65319165068703 4.255279491222105)
(-0.332062232217414 0.9596253963329985 -0.3873792806207519)
(-0.01273618795088712 -0.004769839503618171 -0.003284367570438387)
(-0.00179141377299167 0.001081348584565735 0.003751901240096465)