/*--------------------------------*- C++ -*----------------------------------*\
| =========                 |                                                 |
| \\      /  F ield         | OpenFOAM: The Open Source CFD Toolbox           |
|  \\    /   O peration     | Version:  v1906                                 |
|   \\  /    A nd           | Web:      www.OpenFOAM.com                      |
|    \\/     M anipulation  |                                                 |
\*---------------------------------------------------------------------------*/
FoamFile
{
    version     2.0;
    format      ascii;
    class       volScalarField;
    location    "1.6";
    object      p;
}
// * * * * * * * * * * * * * * * * * * * * * * * * * * * * * * * * * * * * * //

dimensions      [0 2 -2 0 0 0 0];


internalField   nonuniform List<scalar> 
19632
(
-0.1273257716694839
0.03343467866369084
0.02721140698958291
0.01840353507880212
0.02660540824364786
0.04662270692318327
0.03906917742381498
-0.199316742665209
-0.2441031442903728
-0.2778208502665177
0.0571482638853138
0.0501046599683113
-0.2121126377250576
0.02730054214742412
0.01906867928190894
0.0007486017717119635
0.02079238990485696
0.01855421276773974
0.0279519978864384
0.02446860690334851
-0.1963118160904367
-0.09935839365429623
-0.3242008534117747
0.01969847373725356
-0.01622150008697438
-0.2282610310976951
-0.1315877256057361
0.006917256670103625
0.02469748604853785
0.01203157160783
0.02493930444410918
0.008701788563598508
0.01681624962317338
0.03112697555599177
0.01813052504255775
0.02224558055100014
-0.06357390419068727
0.04672122127037075
-0.1890209013046649
0.03636870276670243
0.008965670046754429
-0.1957695097390043
0.06929298889482127
0.008196171945202483
0.02040888292043922
0.01631720045842794
0.02207109846248293
0.07970369752667765
-0.03384787178066933
0.02261411540730313
0.1111937631230179
0.1286365436230879
0.02411861379863788
-0.01534638770821348
0.03228823443782379
-0.06352023248148794
-0.2410663111133907
0.02174200383250918
0.04650824067253456
0.03458603136840433
0.01359051021996962
0.0332179367259457
0.0174907905250571
0.0374701867322971
-0.05327137940287022
0.01443739992437736
0.006473926089169405
0.02576695761717203
0.06266866404667665
0.02539939453964438
0.02000881173926146
0.1067056459396596
0.1638585400489786
-0.1937105545445902
0.03203752044768941
-0.006723896999209698
0.05065492326071769
-0.008874081312371227
0.01138816077487344
0.01434013871719602
0.06507742095382606
-0.01823064702231703
-0.1063655637204128
0.01456386793869238
0.02553760745362407
0.03269078577907591
0.03135721584356536
0.08279296328262672
0.1521879407757241
0.02139460735584821
-0.2340278895320834
-0.2134073342253815
-0.2348377871601929
0.03229626292319504
-0.2105871227284144
-0.2132592527961934
0.05013479345205876
0.0499337973622436
0.0224876449347153
0.06239586214043079
0.01778760224766687
-0.004506807103296697
0.005532703240358814
0.01110534080153759
0.09574226140864282
0.04724280584759546
0.01662009186406507
-0.1905975950208637
-0.03425505346334189
0.04912178587188464
0.09722700568230819
-0.2976524408509281
0.006294230683585276
-0.2588712493017714
-0.3362163704193531
-0.1636092078875732
-0.2525016819717097
-0.2745504021651837
0.04212121164911455
-0.1711569900068349
0.1254256022892057
-0.1865766661704342
0.0179421261636948
-0.3124001724427203
-0.2997163836951602
0.02652099124707765
-0.1739997632160663
0.00557690557752067
0.01535297315938499
0.06461451214719348
0.0584564960119645
0.02615587299728502
0.01591800117962414
0.0531767644993695
0.01046978084070792
-0.009001244265083568
-0.3551051216768291
0.01076615025912876
0.02302491299917955
0.01321054299678871
-0.005409822807434312
-0.1231832570889607
0.02618026869937768
-0.2254132600959365
0.01766134011507023
-0.1692533338832921
0.0291481641965517
-0.09803434219283688
0.01159497338323871
0.0108593836684086
0.0486576204999216
-0.01065376521481748
0.008865081470209793
0.01993619463748934
-0.1894157456841631
-0.272260531100007
0.1684301553316368
-0.2035423607753087
-0.1044763225343382
0.03757305458394758
-0.2846945428682988
0.0689804663642143
0.05981256602504625
0.09854886216719311
0.03846101254370553
0.03188611622126956
0.02390381303924999
0.0858488985217554
0.02971896664566409
0.1233107573140519
0.05552439971678359
0.09431932583851353
0.01502625554278684
0.03430867342756151
0.0134095047880727
0.03301715252223463
0.03539871860688368
0.0148276956366717
0.2173559257169844
0.0128991904704301
0.02700978359001429
0.02722156926291259
0.02042164096493571
0.03267810924074217
-0.02695715116319111
0.02425379304320663
0.02658086107634143
0.03323486968937463
0.05728389221327762
0.01255663898710689
0.1410113506628264
0.05674538930891945
0.01597422439466963
0.01685484647735231
0.01958391256164211
0.02680035250590029
0.02532696854574519
0.01946486666589629
0.02372458402013262
0.02912936467603875
0.01447778426835688
0.02519665723120055
0.03679318301234183
0.08605929505701837
0.02698879686805435
0.01699787520711362
1.107045394315835
0.05182521115467739
-0.008151778284272932
0.06692856261798578
-0.01285895640295445
0.008579587698883662
0.02562736484183681
0.05118889242576441
0.02805335067529765
0.02198613451199881
0.02864692821520743
0.02654628009789707
0.1281927148024697
0.0781452682940222
0.02641655122902067
0.02991661124606628
0.01819779323264906
0.0127946988479716
0.02891038962006097
0.01981472102130785
-0.3423209152575223
0.04122981939375841
-0.3070531842488269
0.03090348661291479
0.01185697573885323
0.03667666337703541
0.02678481984689444
0.01166852955797043
0.0263832310166241
0.0257339166790833
0.09637518962284704
0.06401947563439656
0.01918103527497535
0.01906131418493727
0.03072382825169551
0.02202519890643184
1.585561587654845
0.01813750799296189
0.02499129887576381
0.0189654860340467
0.01711985710050274
0.01875463723143045
0.08440229812687228
-0.1052065269342185
0.0177496852148101
0.164308888504707
0.01908306965011804
0.02017780734360997
0.08193829201280785
0.01994194875421313
0.01945098873960716
0.04877091980413335
0.07860817038561445
0.01561611093805718
0.0121610316981418
-0.1369452389540791
-0.004757842225613625
-0.2344766892061937
0.01556891072823979
0.0736501520580309
-0.008505010391825399
-0.2341564771208067
0.0345284164491266
-0.2495769651552459
-0.006501314910889815
0.09856411738508657
0.03736745244244876
-0.2323491059678077
-0.1346417819973077
-0.2348266926296142
0.03168351106364478
0.03361238781507814
-0.2197916959462135
-0.1752551827855597
-0.194471428866634
0.07835207470433483
0.02822420212583847
0.01132699234300786
0.0213413959774296
0.01426241729773346
0.006879756092494399
0.03374457418505652
-0.04650472734038046
0.02322720730956267
0.01088525572989894
0.01694235863242891
-0.1523249233867386
0.0193352458138687
0.02502120347803665
0.04312769124426579
0.01424195069866162
0.2745573846259042
-0.03466195865822943
0.02793878668217736
0.05463069762375939
-0.01790421911520633
0.01691340847852408
0.02553719386530725
0.008664396864785498
-0.036791519134863
0.02786132000976612
-0.2698970005720342
0.03001179690464199
0.002006868646320288
-0.2311972234966494
-0.1093074971314848
0.01513858858644341
-0.1765065018100468
0.0499918537253259
0.0320458247396399
-0.01827603410891854
-0.236122703443112
0.06759462509294818
-0.2147747904351182
-0.1036928152910578
-0.2230154876965713
-0.2383587352101044
-0.2501944116529486
0.01305612966718454
0.01471705630634176
0.01873400437298551
0.0336651264043643
0.02935221257850028
0.002580488421145606
0.02642687166414588
0.01472019315301779
-0.005019346698604718
0.000610395138563646
0.01137978701434648
-0.006594415537206396
0.02345733825613228
-0.1790423461418379
0.01980507797567051
0.02740508598861458
-0.008607564432060521
0.02499838054831063
-0.006105224981289779
0.06554180667217817
-0.007580872916229767
0.1016466357401021
0.02261080345498924
0.03873219526810044
0.04234279823158368
0.0230684557916815
0.01956663137595801
0.007584267716029964
0.01417111653479126
0.01826248542920157
0.01148346069586573
0.03169146868632238
0.02117174599347291
0.01730076028468876
0.007234965066936556
-0.004002814367993582
0.02049252797970561
0.0178061414712286
0.0252026154743594
0.03618352404371181
-0.006543909019228195
0.05550352071396089
0.03922132308911164
0.01078617308042182
0.06404631035350937
0.02695724051317295
0.02457520597407354
0.01793565002554996
0.02155401867134673
0.01919598478595916
0.01980694313044442
0.01883695116489452
0.01948068966152745
0.02468985501371455
0.02144744322373948
0.01888229459491472
0.09818117504934394
0.01790332613609002
0.006944136145514474
0.0137365276933643
0.01932331227742406
-0.03142797992897946
-0.002858395804058257
-0.0241195894770643
0.2446069166840268
-0.09595711849591525
0.0240207497938492
0.01672623604584574
-0.03059061025577414
0.03283345490109342
0.03166974142557705
-0.008776792394326088
0.02600982613440762
0.1752642404938497
0.02653577854843046
0.00934949830875525
0.02725687732084363
0.01830210343777731
0.0195355032154915
0.03183028038313712
-0.00966258895084506
0.02117259452731746
0.004435740539689936
0.01821665022753584
0.01356585133127592
-0.0103616375065513
0.08753897126158344
0.009118617088318621
0.02047290713010863
0.005909024317773738
0.008723914469560279
0.001515245111918454
-0.003901742901653458
0.01732793195939327
0.002634940353133592
0.01321829911601552
0.007828539618119808
0.003498549200691228
0.03011855757961641
-0.006772293969561147
-0.01330979085717641
0.02067210677423193
0.123535161350908
0.003449341532169895
0.005672283304899607
0.02374072162164237
0.006026562228221609
0.002816028676336496
0.004360072906897508
0.01910710279053782
-0.134334649460199
0.1039882406850571
-0.03385280552596397
0.01178417987027215
-0.01900294691607938
0.002910489236046494
0.02195612482850751
0.03627166582222247
0.02032516367989841
0.009041434462821688
0.008876656588847408
-0.028461594620093
-4.837200429019394e-05
0.02365447674292924
0.01716074311906681
0.03458412885713975
0.02003880225371053
0.01284835659579136
0.03689358513795068
0.02398890851000388
-0.0005777891596690858
0.05873295743874504
0.06264495228094023
0.01304132897161674
0.01623379004766445
0.03224657241372181
-0.03694804338905273
0.01973703811684463
0.03044132159959296
0.02101260165627076
0.003989816279099472
0.004291347941564229
0.01927010239810996
0.02962095881876714
0.01494207449154721
-0.02204016635751349
0.01343874055444288
-0.01260503007457575
-0.02910924492520627
0.001918718357907853
0.01411924069658418
0.009895045351038157
0.0154200910386278
-0.0337299121010334
0.01545540233210535
0.02250639765233285
0.01549606677109065
0.04563106398781216
0.039788534162435
0.01969728318913847
0.01881355318082567
0.01127742150557101
0.03964280101209428
0.02834480601503596
-0.008532428399236342
0.002438372928101754
0.02431114767039465
0.009718115153983299
-0.1297301781376444
-0.1023810364248252
0.0256638518294093
-0.1154711063044227
0.01832514739962318
0.01167566800395228
0.01119360248764317
-0.1134977580025697
-0.07450099698637576
0.02043536301920116
-0.007012875890179578
0.000620306145576706
-0.004494366203719281
-0.2648743856503341
0.02867542762018193
-0.006975559430268226
0.00501636042197093
-0.001233709833670125
0.001928911504498388
0.008065245202496027
0.02524222123198137
0.01769717765990788
0.02043652998719462
0.01780939645056444
0.01655382849991837
0.005885927642588971
-0.004019088907902961
0.009905781685847334
0.004320317030335951
0.007550447696210682
0.02263400919374375
0.02051200249864735
0.02091651817360292
0.01917568978541047
-0.04152671899368154
-0.2309714111814155
0.00886765099264891
0.02278137908504967
-0.1583375285096378
0.01793904269911503
0.01815607945264703
-0.01417224393675001
-0.233188788034537
-0.3056189794597353
0.01526162522270583
0.01972532535102479
-0.04484892567899081
0.0294900071505628
-0.01378953120739434
-0.02720833795552398
-0.01766142346497826
-0.0838251173812239
0.02214390044489933
-0.01093102812880443
-0.01137372822652374
-0.02111581402860839
-0.02576431323564902
-0.007797312393318542
-0.01085380506598848
0.001265274963142252
0.008034156291313802
0.005446849844637175
0.009955312222607654
0.01477624217756579
0.01523289418252841
0.005179484237463665
-0.01412490534576142
0.0009925018893135807
0.002063750248761146
-0.08148537189980824
0.01194916943450964
0.009955158923513539
0.03124589285283445
-0.02010432850624552
0.02310590123928914
0.01121247046953449
0.01269816574292713
0.009651393582808749
0.008832983020568716
0.01691808814790247
0.00641238647827154
0.01526186181600275
-0.01221319681227597
-0.006545918020451611
-0.004808994251893017
-0.001267724218224416
-0.004289733689203684
-0.01792906668210969
0.009791933593207864
-0.1015909535599056
0.02194309790898913
-0.004431426088538352
-0.00836002641632372
0.01689545833238883
-0.04627835509534406
0.01311847036791814
-0.01211979244767908
-0.02524940710754978
0.0137728587228956
-0.0201895011289381
0.01797605219628407
0.01353168376624054
0.01054372248456184
-0.02421164116175435
-0.02007119013002271
0.1727663148672504
0.01001646077831284
0.008768751136804216
0.01225578902658197
0.0114832479184629
0.01229630137244207
0.0101632346519737
-0.09866934702274334
0.01808220253585719
0.01999723661477553
0.01443658573633629
0.001581181556565976
-0.2463933857296406
0.01623653572211371
-0.05851462809381831
0.005281786999936811
0.01708583107041177
0.05153756520411435
-0.01036529975169039
0.01579912074344401
-0.03909714387662321
0.01585929430623847
-0.04647444064787073
-0.004240168885954273
0.02103414392617577
0.02105762856416443
0.01876605028024097
0.01842048602312663
-0.06788565396965314
0.02505745276332976
-0.1835804674475875
0.02513966777392104
0.01175267494127342
0.01376419212755337
0.01453446429411664
0.01280774263047898
0.03157597058125695
0.03295523566498077
0.02167671247327659
-0.06794148489904188
-0.06797173627982903
0.1298134641581105
-0.01356702797738083
0.0219508441379086
0.02599461096582177
-0.2159932146576173
0.02561030348092632
0.0134793862348743
0.02498044721173122
0.02608337534464742
0.02603976389482857
0.02403926253352546
0.02417639274061512
-0.02174779109660459
0.01732811938934311
0.01729677310226418
-0.002178407488767701
-0.0854912984006989
0.01742918794688525
0.01687032554222945
0.02058337404655722
0.01673235686395165
0.01645347097549004
0.01676008155098482
0.01694992016257664
0.01631119783991931
0.05938912005997762
0.02570941388869468
-0.05860995424843148
0.01610239908810782
0.02273410540434975
0.01623237142800887
0.02590934788290509
0.03162780676604418
0.0298147210723306
-0.02280301333633432
0.01653451557287869
-0.03445575277790839
0.0169618594909151
0.01645750640950185
0.01646276996671458
-0.009646874142653746
0.02784681907475516
0.01857080393712542
0.01646661640447773
-0.003809933100696134
-0.05817318696944255
0.01725173559204565
0.01769193450574509
0.04672377590054287
0.003236375527446517
0.01269425890133373
0.01754503692141624
0.0178146423082459
-0.06935321144135648
0.01796506557770633
0.03265568517761035
0.01747591344736389
0.01552806038594679
0.02181288091092707
0.0045954867362209
0.01428117409686122
0.01353331722357519
0.005285442304486075
0.0006149436762682447
0.01784120344039878
0.0183793991613797
0.01361508693197944
0.01389674171675494
0.01515499584044225
-0.1214069669780432
-0.07963005860716475
-0.1512639501049925
0.01114624576517666
0.006677779455414724
0.01843203199128483
0.01904818343660985
0.01649432093026026
-0.009593857405457784
-0.05660564206332301
0.03918651743081013
-0.03867395516000643
0.01888465872868845
-0.01750300356034929
-0.007817056861603087
0.008402755785430076
-0.1463180248895851
-0.01216577349920568
-0.01040781202489435
0.04130903603702256
-0.07909186819123888
-0.003454640050863445
-0.03807422690896568
-0.01784192101202882
0.03188793543686291
0.01963158594227968
0.01101329131825213
0.02259475801303156
0.01408987782345159
0.01756989900695536
0.02129521052880233
0.01418388740969347
0.01977929591251173
-0.004769541508511213
-0.03812674704255196
0.01877884174599133
0.01392472442772361
0.01380114821366654
0.03579771925638452
0.01910079688013881
0.01580258536775248
-0.02204264488516668
0.02568661725551891
0.0151068113423776
0.02576057769120342
0.02017515453489098
0.03816281588058091
-0.003069939757892095
0.02340631976325564
0.01498561776050498
0.03357308074095013
0.03523244354047202
-0.07825465433636723
0.01575197279757129
0.01413057538770768
0.005389339014229118
-0.03489095204020705
0.01526718251568096
0.01513302575652363
-0.01874193719466913
0.01722650883444188
0.03387410030840566
-0.02032382821322511
0.004245888965915918
-0.006758984158853682
0.02486355217140762
0.02542293954306526
0.0261358857676951
0.02916068824745521
0.01850027356374949
0.01856238025701183
0.02080344271055842
0.01981559999479111
-0.09559436576772455
0.01894863479901162
0.01914143860648517
-0.1485317841758382
-0.01018130414314043
-0.01758339316551077
0.003770059667865128
0.03099898031880172
0.003840744784381637
-0.01893381855754334
0.003229041876662668
-0.002561661319902501
-0.05914309763395565
0.01317516406356612
-0.1027807807690534
0.01147368815372126
0.02411213717684582
0.004311398691349709
0.07608654961763962
-0.1124596183980733
-0.03493640830749262
-0.1042940938723622
0.1572249675275792
0.02637764372481626
0.01336472879840617
0.01797076191318138
0.03335652970637501
0.01295005268687982
0.02727332699061003
0.01912334760784005
0.01023938774711647
0.01808054315411927
0.09132209848598084
0.02475654736394231
-0.07066506563221389
0.03732121862611531
-0.170947486804062
0.0260677318906851
0.02090134450127208
-0.02627491262400124
-0.00426335985180844
0.04509195105855555
-0.01528380064574397
0.009514707816508317
0.03004859017076067
-0.2027157007531641
-0.1082890234548147
0.01978009869695312
-0.2558527129523463
0.03590344803473944
-0.06178024306311986
0.02389145910364332
-0.06198423500565053
-0.01502234050950407
0.03065123006331288
0.02493778448962804
-0.08545459116226239
0.04134454056238859
0.06940311459023256
0.007245184869971332
0.04427279772760671
-0.03392595200368392
-0.1847268212425995
-0.1088130376463441
0.02522379403397931
0.0255250630256544
0.02756420691711813
0.02331148266647652
0.02395588440642999
-0.03604936335287314
0.0249462145820198
0.01452070627382498
0.02020533199064559
0.01604931722585889
0.01874774551753801
0.01472204539482492
0.01637252861964664
0.01865980457339947
0.01846635037678451
0.08046089696018864
0.01391704663274122
-0.01738759039863996
0.09490204157258142
-0.1722079531312701
0.1447311839075549
-0.004352253198824066
-0.08862535251913851
-0.01092239814350746
-0.05421759054768484
0.01036346076719082
-0.02635344561640725
0.009352420698330356
0.02257369206547341
0.008357038510272495
0.02513172245354687
0.01315643560578847
0.01373655696291434
-0.0370776192751936
0.0718598365737281
0.1009674023653243
0.08469275521583375
0.04138979701357873
0.112140685023863
0.01064474855397575
0.02942463409557993
-0.1646938458381268
0.09203236095323894
-0.09329271806416743
0.004317074209604004
-0.002984082286758494
-0.1156238302364191
0.02370507578206033
-0.03698602432663483
-0.03415998113216695
0.04620852986092271
0.008976885141075856
0.02323769325178737
0.01232382010098973
0.01339649551854283
0.01951164594743002
0.01956335870227684
0.01939336263084497
0.01920280403819996
-0.06578690307058853
-0.1902718676202865
-0.189668378293573
0.01681160588567725
-0.0689362242762226
-0.03149586986454409
-0.04665717127056814
-0.05913869128734829
0.02996775704615991
-0.2356191523386002
0.02187934624546994
0.01908027467784049
-0.1003373376403804
0.02354209909517734
0.02302359247978152
-0.04495082529639922
0.02379272868645311
0.02385736838145132
0.02692678028653869
-0.05556560899151793
0.02812801421027035
-0.2642352197624394
0.02796335961556027
-0.08984270883375713
-0.02810276206758535
0.01698657629644
0.0844118780956868
-0.05131771449969308
0.0371676096170239
0.007058383240900686
0.0161230814088874
0.01716177339764768
0.01764166742345447
0.01672713507570315
0.01521265327090282
0.01773834619662865
0.01794417149177781
0.0142719325721959
0.005092160574504637
0.02685732604413724
0.01024668879844221
0.01980094052440317
-0.03996006604068082
0.0184946553009541
-0.1749682521281976
-0.1488258367926545
0.01853533447748235
-0.05083437218155294
-0.1877519359227117
0.0209115763070515
0.01890975802907188
0.009400775147247542
0.01274882687673891
0.01735535166534826
-0.2083249117936143
0.01750776512303694
0.0166303256147104
0.01824078472354403
0.01691929043746235
0.01853385283908281
0.0301130839877579
0.01750777889521387
-0.0708874406902507
-0.1247695974122677
0.01809715825462517
0.01731764428025495
0.01666545156956642
-0.3330828063486635
0.01651112365821861
0.01821557261022926
0.01902460903413851
-0.005617183321716808
-0.004430007281830083
-0.1390260418928134
-0.007502552831221552
0.01806929319151932
-0.002440565454747755
0.01745591028526005
-0.0002039063777834878
0.01715300827537761
-0.01971499409751139
-0.02230697905901394
-0.02706934116065856
-0.1333238880131651
-0.01677618194363192
-0.01647028354077719
-0.09687818547297636
-0.0198864991840249
0.01629360063225055
0.01105335049407033
0.01843076628021467
0.01671861025578906
0.01879208022903307
-0.07021097202557204
0.01919627422024075
0.01991897739035819
0.002931710918867163
0.004815668469335213
0.01735912591935345
0.009973820128230103
0.01088944277186335
0.009937317116212057
0.02636310858030779
0.007251493276006782
0.03801250827126294
0.006870344053085633
0.02739932492098673
0.0004483807885021254
-0.1256729681262251
-0.02784086259684047
-0.05756726929403868
0.02788123692752115
-0.1059373803468637
-0.1474900273536951
-0.046429572324557
0.1218323759049507
-0.0537067740538641
-0.005341411649721873
-0.1727614285137908
0.005407963614094818
0.01433804296370582
-0.1343489442407974
0.01046762131288982
0.00878072913222178
-0.1915849225653421
-0.2967765440961598
-0.1431297548283245
-0.05402475081353602
0.02628507403265473
0.01671967514384668
0.02853559409727619
-0.04714631026369853
-0.05025732626526291
-0.02285551721521634
-0.1885646831221796
0.02987466529295398
-0.2317169529202685
-0.2335361995768046
-0.2256804914123082
-0.1559208066825922
0.03043168248025291
0.0184526466032326
0.02499702380513369
0.01937877603277579
-0.06474083051952478
0.02138611622756888
0.02170998487738399
-0.04684796382279836
-0.04819647200986929
-0.043485065584931
-0.04207057539736057
-0.05463020778770903
-0.04832557916623839
-0.05466886490786721
-0.07280421463708121
0.001700463300009253
0.006868653447594224
0.006737338653748691
-0.1216273601146372
-0.04543391679430589
-0.03641704873058436
-0.0533036145520056
-0.0463481930028297
0.005470971324382028
0.0188149921772601
-0.1085881453619877
0.04318389530322855
0.018853168467129
0.01847248824051657
0.02000625275844581
-0.2655749591686664
-0.1647695187442104
0.01894855627456114
-0.03065070395224394
-0.02334962650202379
-0.03043578807376455
0.01996107193953695
-0.009485989387933188
0.01855950652288018
0.0177426285755904
0.0004901094235687247
0.0005820161580002371
0.03378759064283716
0.01779100294063709
-0.01361204221433797
-0.006404841190050975
-0.0127973860473306
0.02001020412529726
-0.1418403335440205
-0.147404503601051
-0.1279503985734226
-0.114525489453903
0.02004748985421638
0.01984675820809439
-0.02350277073672801
-0.01406978589352814
0.01984103938840106
-0.008220352502077316
0.01934270234998623
-0.008569642765227085
0.01434988625346374
0.02196820315921477
0.02287802726528727
0.02149727904816735
0.018562697812199
0.02166991927040169
0.004718477280780072
0.006121203910662378
0.008910252471491078
-0.1134506806632999
0.009393429498497516
0.00404991555985896
0.003126529054861123
0.006932657253794569
0.01779924517926812
0.01620011211257024
0.01731785132641993
0.02201324766010562
0.0200903985305361
0.02420971242067727
0.02615464566298958
0.02624818540814247
0.02662145949534329
-0.03291008839801537
-0.05133013116351694
-0.03804167662664332
0.03334901658083381
-0.03740377104472047
-0.03272806865953774
-0.03447480756992492
-0.03753836775050394
-0.01654230355137364
-0.02459295451401428
-0.02142160375254537
-0.0092437303989926
0.02250227290519811
0.004930433736900811
-0.07059750345334796
0.001668553811387589
-0.01604191233822908
-0.02092088197681125
-0.01799616720972276
-0.05585091281232572
-0.01784037069162982
0.01473415929595673
-0.03182134433185585
0.01564095894693533
-0.06116674035357359
0.002099151271132203
-0.007018889774791173
-0.02178773846774451
-0.01560397256906619
-0.004193032676848292
-0.01311985520257012
0.0004143745893094519
-0.001763882394024566
-0.0008033058687628285
0.002943361678961174
-0.001490996064009053
-0.004262819902736334
-0.004991286766993734
0.001331341171123292
0.01286062321949948
0.02064693594657584
0.02059341615074269
0.01918971423607101
0.01853475976819333
0.01243495155910581
0.01235237287375105
0.01182087171887746
-0.005976373492740673
-0.4315940331833276
0.01363719686190453
0.0354245438649661
0.01330304692693288
0.002043936101716565
-0.002184526158914856
0.02079515037939617
0.02601837402358244
0.04495234835986181
-0.0009918971106402049
0.0007750143919707044
0.001707497715161508
-0.0005630628148770272
0.004078841713456719
0.001415834717028268
-0.2151828045832051
0.0058328783557492
0.004688540021349445
0.0261718608823048
-0.009096119116236675
-0.1705941536841947
-0.04479796180423325
-0.08520187348624902
-0.03525085945384582
-0.07074581765887353
-0.04258047075560985
-0.08515940180731625
-0.1132005620463808
-0.003980737262560884
-0.005618829197486712
-0.00667876821307679
-0.0002075964200409129
-0.00376736734345786
-0.04536531726574505
-2.386518687473323e-06
0.002222586637852496
-0.0782284986224478
-0.07148083175808864
-0.07934600483818093
-0.06671389243601643
-0.04637507129725145
0.08534355444138958
-0.05856626656573105
-0.06539166844898119
-0.02911600107388689
-0.02481701414473578
-0.02557834674643582
-0.06915027861927257
-0.05444642189878002
-0.032078479868119
0.04661409961024399
-0.03193672818888998
-0.02482082262747183
-0.02634202591403503
-0.03381352624366497
-0.04322973672457963
0.001843870102979688
-0.004091608471398469
-0.007616471000818473
0.02157564740073141
0.02279395263052454
0.02200589617794536
0.01136629739119496
-0.02573710542752933
0.02355983460884947
0.003095909347597932
0.002018392121528152
-0.02717017670033512
-0.01799370444751118
-0.02438220777450334
-0.02341405161035807
0.005859522358989507
-0.2609650925109324
0.0183873689410756
0.01823937231647994
0.01891935442265076
0.01843588811710721
0.01789467398354998
-0.1735513683577803
-0.02919679393516056
0.04524929734369885
-0.1029488699562608
0.01730170804065658
-0.1536454144258052
-0.03387739526457747
-0.1404136533006246
-0.2070744746555458
-0.0443762539155968
-0.04827979257025153
0.006473585787689448
0.009947311948026859
-0.007009366946202938
0.03092666076613636
-0.07003583491850422
-0.00651084024119108
0.004076356278763237
0.00119539450242694
0.007203373985668748
0.01528032402830259
0.008544753482288159
0.0101817484308192
0.009181649904144959
-0.04316983752331771
-0.05044236414471596
-0.04510656307928386
0.009952221852610556
0.009008106603319358
0.01014049381297573
0.007016536032272602
0.006812822833076029
0.003319779137413406
0.008077283622796829
0.004306688898390947
0.00285906213865343
0.006116222918375499
0.005356953540911626
0.003976333495840965
0.007878557270553218
0.009152994201540816
0.01585700935446552
0.01442802671412735
0.01680247179541982
0.01728763580662477
-0.1384129789933106
0.01543663813649126
0.01393298988805011
0.01469096299101931
0.01189075193036238
0.009664685895586708
0.01021112592992415
0.004140420574269939
0.006289523747701132
0.004694497415667317
0.1067502649379822
-0.01459573508363177
0.0001224921656772402
-0.002085381115401549
0.001200259580246576
0.001520757721194631
0.006678510713951945
7.908864258693852e-05
-0.0001889870379549196
0.004126228935866279
-0.001582399251563084
0.03231139150400399
0.0145589967470997
0.01406728222129831
0.01314586173070059
0.01742289038139538
0.01771301080165696
0.02154529268435712
0.02613866610403022
0.02111338944434033
-0.09561776255797691
0.01030489863126544
0.003755227852108238
0.005225873344362193
0.007084693748771115
0.005256948862979414
0.002000178646868855
0.002126719546204778
-0.1781097476746882
0.04736124004775218
0.02494486683250145
0.01003681720746331
-0.009422824978191774
-0.007684020835170267
-0.03893586291550067
0.01525536984796881
-0.0134954903161307
-0.1541787990216292
-0.002682026542223639
-0.0006381297238532023
0.004374931199304297
0.002446760342461953
0.009584781128964433
0.005397144590011069
0.00588363110975693
0.004892882247307686
0.01023756008352961
0.00843354566740151
0.004689136228072146
0.002880649670621758
0.002044687033126937
0.003803394459324882
0.01006193780960523
0.02150030644453201
0.008071633084455793
0.01013043325135768
-0.008456849405470798
-0.013103523188482
0.01129370191552875
-0.210580260580007
0.01928859321146375
0.01779998350141104
0.02543971496159314
-0.1363225176183266
0.02456752450810984
0.01905722226784065
0.02144410047037707
0.01654128851846098
0.01414185671265686
0.02519804159389592
0.02262510086779531
-0.05852746112345714
0.009824652124746489
0.01192497623216647
0.01271178480167594
0.01130466049666152
0.001188310722542879
0.005361842540940418
0.02960634501454239
0.02634241890600513
0.04077810133537794
0.0306675826574605
0.04364811410409317
0.03792880263645505
0.08094264549498044
0.08780070451758104
0.06161704139806775
0.0143283664883871
0.01152020574825788
0.01165747305699744
0.01474786708279732
0.01397766118654879
0.01380940140444958
0.02489640280724233
0.03277653167712787
0.02565486074313395
0.02677335507342196
-0.1616972908541068
0.02509212886030208
0.02324378020041334
0.03143597410190619
0.02780492005795788
0.02861172318141073
0.02821281979511556
0.02663698925620412
0.03522537866728372
0.03134673228710389
0.04319878862217368
0.03168759099527062
0.0365406105511491
-0.005900495428733275
-0.1033690366106447
0.04007473296551955
0.03413101307411192
0.02428948023400752
0.01953252316183817
0.01902659072666366
0.03426635997140827
0.03052952428792902
-0.1525686391064586
0.02441270762562834
-0.06192151653276577
0.02581414001121421
-0.17505578097772
-0.2283835990714961
0.02841468411611865
0.03026340102859671
0.0009609816659031851
0.02863233077443336