/*--------------------------------*- C++ -*----------------------------------*\
| =========                 |                                                 |
| \\      /  F ield         | OpenFOAM: The Open Source CFD Toolbox           |
|  \\    /   O peration     | Version:  v1906                                 |
|   \\  /    A nd           | Web:      www.OpenFOAM.com                      |
|    \\/     M anipulation  |                                                 |
\*---------------------------------------------------------------------------*/
FoamFile
{
    version     2.0;
    format      ascii;
    class       volVectorField;
    location    "1.6";
    object      vorticity;
}
// * * * * * * * * * * * * * * * * * * * * * * * * * * * * * * * * * * * * * //

dimensions      [0 0 -1 0 0 0 0];


internalField   nonuniform List<vector> 
19632
(
(0.0006460952556529851 0.002938098677083754 0.007596342623590494)
(-0.0009688862365918853 -0.00101234832505525 -0.0003998008404014486)
(0.0005736076631192601 -0.0004432432984997841 0.0006314955657778596)
(0.0004577796025194156 -0.003954010360985697 -0.004121367246965919)
(0.001884251437167564 -0.001055541150204101 -0.0005687332430136588)
(-0.00344338692249553 0.003101100615119133 -0.001969217740320156)
(-0.003087983250935952 -0.0005045337878424646 0.0003017795669017975)
(-0.006878071118381543 -0.001862594378378186 0.001925981775118042)
(-0.008968301325787782 0.002978238294433205 -0.0003660047608006554)
(-0.003311529031770355 -0.001961683262138621 -0.004509776997958273)
(0.004742770917064566 0.001572357759809662 -0.0007252156524158902)
(0.000998782187104072 0.001103530134384484 -0.0003933657944246761)
(-0.01227805399429516 0.003251503557686962 0.006071715059814433)
(-0.001983255558521886 -0.0008075791277119041 -0.0006846984102501766)
(0.0007000330454430666 9.517064234184374e-05 0.0001024651525352822)
(-0.0002007544754238513 -9.690079414006587e-06 5.852030111859625e-05)
(-0.001045339276887399 -0.0004355209738611234 0.0003965009761535709)
(0.0002060042144840293 0.0003663369598199158 -0.000212894416558031)
(4.84417840793106e-05 2.268852878532698e-05 0.0005460905378372611)
(-0.0002819853397618645 -0.0004913607008123002 0.001899580055964374)
(-0.004241270228694126 0.003989991647722682 -0.001631571417712258)
(-0.002949383628889836 0.002373907774750989 -0.001022004010938731)
(0.0107355318015294 -0.007153722110126949 0.01984313959963362)
(0.000119311087837561 0.0002863743946525738 1.411717391930265e-05)
(-0.0003754317504736688 0.0001891852338885179 -0.0002385408338395971)
(0.00404810003105966 -0.005881218179819829 -0.001206972421282608)
(-0.001458377394740103 -0.000962051221486112 -0.002150844805383806)
(-0.001936172354363308 0.0008406221845782487 0.002279511191909848)
(-0.005591400911009542 0.003886880674432867 0.0012434941852367)
(-0.0003973617655499212 -0.000432181025899891 0.0001538710386305)
(0.001434829573767238 0.0005163967303607043 0.0003088982368719691)
(-0.001682062994546023 -0.001925166958345168 -0.0003752009484616189)
(0.001219097732860993 -0.0007678361364374261 0.0003286524197971836)
(-0.001397323681370175 -0.002103374939146698 0.0001699585879966583)
(4.363933823201474e-05 4.714189047706518e-05 5.680786781340053e-05)
(0.02401886633030777 0.007014227615952761 -0.00121109779642323)
(-0.001103627674398788 0.001252231439722661 0.0003909976591665063)
(0.00781813845847297 -0.000305054817691564 0.002407010268660201)
(-0.003839480811815498 -0.001466574901383591 -0.0004785771915557667)
(0.001966815653448833 -5.145840821803435e-05 -0.0002495606376951823)
(0.0003479575570638903 -0.001093683598922614 0.0006565609397632226)
(0.01496332805798502 -0.00200039452005049 0.004033648610382239)
(-0.001326090116389705 0.002027071452241725 -0.001736775081400848)
(0.001040894769851772 -0.000642328265801813 0.0001531380857724219)
(0.0002333946923710375 -0.0002113990640358932 -0.0003271752858351848)
(-0.0007841184936112869 0.000392704507515382 -5.862111491048577e-06)
(-0.01001740048351925 0.003221905968430325 -0.005274659292224887)
(0.007167920844886647 0.003677026485656129 -0.001741136507810627)
(0.004953089260193132 -0.006586787798365084 -0.005970955831494986)
(-0.001607019779307247 -0.0003343380238838636 -0.0002585550036371819)
(0.005764718411883857 0.002598434281043245 0.002899746583561911)
(-0.009661911174098325 -0.01259092032643614 0.004613561154992966)
(0.00512016434509492 -0.000137889677768351 -0.003440082437264557)
(-0.002330604768664762 -0.0003889977105397567 0.0002699190851769164)
(-0.003751932221582846 -0.002018041646922367 0.0004634717899532799)
(-0.0003833975887681801 0.006721013523960842 -0.004441280123659776)
(-0.002653887139113304 0.003165026769665278 -0.006836490539792923)
(-0.00474486040950653 -0.001467126966964133 0.0004943830440989254)
(-0.0004195966480873722 -0.004196573533671221 0.00567809420181962)
(-0.002514322022319744 0.000203046830989828 0.001404626592615799)
(0.0007037757019842451 -0.000215864359345624 -2.464198780078913e-06)
(-0.002726454247859315 -0.0004098122720907402 -0.00122621197635741)
(-6.13138791476061e-05 -5.657764612990053e-06 -9.384566901670008e-06)
(0.0004705239783278709 0.001044267987023438 0.0002461213774491455)
(0.0004587317568295402 -0.0008482896057290335 -0.0004634831056067182)
(-0.0003054010842119047 -5.879695170854809e-05 0.0006358089445683466)
(0.000163029681338618 8.844468904045373e-05 0.0007377359595426407)
(0.002869776054684188 0.002398685051382948 0.0003083839451733286)
(0.002788139503918387 -0.004793286332554445 -0.003339774616187017)
(-0.008993063262655285 -0.002068062122762574 -0.0003260434323056113)
(-0.0002618841601902561 0.0002050997420958642 -4.547263897700244e-05)
(0.001665368474958883 -0.002699701887660664 0.00320651465622324)
(-0.002282275646151268 0.002107080742461632 5.967188441775655e-05)
(0.00019372901775496 0.003075254154182159 -0.003268397973364356)
(-5.525597251458907e-05 -4.865645599785234e-05 0.0001926106832774334)
(-3.977481246775563e-06 -0.001244495035839153 0.0006751516465986012)
(0.002954484968689381 -0.00515716564503904 0.0005158536436695631)
(0.0329716217672896 -0.02537653355332528 -0.005750127470283675)
(9.583227503621289e-05 8.226987489616083e-05 6.828475359546291e-05)
(0.001580364352136818 0.002996726744799785 0.0009407505138352545)
(0.001660390690032991 0.00334604531926869 -0.004808593037071249)
(-0.001262159796587111 -0.001919917968426063 0.005057027857840625)
(0.001800052851473484 -0.001359900639767614 -0.002099281198071471)
(-0.002563207607147435 -0.002727113213315883 0.001576452398509575)
(-0.00108989946512135 0.0009992285142723628 0.0005678298772258139)
(0.004320206745775302 0.0008733361685147279 -0.0002492154264225183)
(0.002281380997077804 0.00162214897417297 0.0003263937622850393)
(-0.006364121491156428 0.003226537214530458 -0.0009785651418571693)
(0.009704826574671269 0.005834314026601889 -0.007772186967213972)
(0.0001919302962177093 0.0003995590915449976 -6.998574795663202e-05)
(0.01084093869023539 -0.001821413645684889 0.007720512113116449)
(0.02340152601786411 0.004084942730392271 0.002433047133321916)
(0.005370667307495499 0.003899867476526754 0.00226645503025908)
(-0.00983626319506571 -0.003025479671329332 -0.004584393527606185)
(-0.001187039025661548 0.006153080222576734 -0.00341810330342305)
(-0.003329502492831676 0.004222234007001828 -0.009606844827584157)
(-0.0001116470411280462 -0.001180124737010271 0.001943382262104485)
(-0.007896787653982551 9.686810040471024e-05 -0.001738242722309685)
(0.002269756655791422 -0.002088024756559329 0.0007358196258368916)
(-0.003632735958585642 0.003064474331138136 0.001044180905422437)
(-0.000237727434234683 -0.0009737634357221788 0.0005006062927077155)
(-0.00201132114897714 0.003640096886534239 -0.002332946098406006)
(0.0002025434401291477 -0.0007917190414025157 -0.0004053022220869248)
(0.0004959314492479683 -0.000218632504716856 0.0001096942976504012)
(-0.001875713991820349 0.0004877473560917188 -0.001608140863589536)
(0.003569160766220981 0.0009013003812944032 -0.006102630158077283)
(-2.978018898630627e-05 2.242335185258825e-05 -9.25887227975264e-05)
(-0.0023245662868979 0.0002754487476691265 0.002786785348856946)
(-0.0006218732979418267 -0.001251157792840552 -0.001987804484988605)
(0.003894535555882666 0.00106661324505809 -0.001848562317885837)
(0.00211094985101103 0.001750465304016911 -0.0026791489188105)
(0.004928005144021213 0.001520176049279023 -0.001059269036792815)
(-0.006959137109216099 -0.00107537402678313 -7.709308150632217e-05)
(-0.001594377464544651 -0.0004073628214068709 -0.0005284398867418955)
(0.008205308084607682 0.003230634482145043 -0.002283014964985086)
(-0.01456213803890534 0.002235864797161019 0.01844659665454488)
(-0.0004073762195950767 -0.005803038060732551 0.00234957722477722)
(0.000647199699063379 -0.003963618249196802 0.001396468302767757)
(-0.005414944114962877 0.001007293373277173 -0.002889185067312684)
(-0.01550055955208405 -0.004713488641724312 0.006560203887131457)
(-0.003303052360684377 0.003969229309586433 0.001498347661939104)
(-0.006536527054282134 0.003166807338942424 -0.003635972072794946)
(-6.828774160847564e-05 3.306454296119706e-05 2.563540784413186e-05)
(-0.002332824717152467 0.002775024657201401 -0.002530525206508018)
(0.002784465662724045 0.006602042435738517 0.001802335356845517)
(-3.770075305841221e-05 -0.000665612431360339 0.001043737317304423)
(-0.005647789297586813 0.005736458401011034 0.009952824988141134)
(9.179486925211036e-05 -3.634373312556528e-05 -4.711221981147114e-05)
(0.002648520397496852 -0.001330848754335115 -0.0005665321263686907)
(0.0006780476316472577 -0.01041403607059081 0.003935291606352914)
(-0.004118382800233665 0.001724584907770944 0.003365584895070909)
(-0.0002781700199238878 -0.001054522496835493 0.001334961709003425)
(1.629560839729408e-05 3.478710613775544e-05 -0.0002344446116543998)
(-0.0116391866284595 -7.774620163981738e-05 0.0154410981144884)
(-0.0002819336627960173 -0.000282645436964881 -0.0002300953382111741)
(0.001177517018666007 -0.0007089860976545043 -0.002128681029241199)
(-0.0009502244450420023 0.003712348963726069 0.007589507762851913)
(0.0005175136537160685 6.485691522408474e-05 0.0001633105669778001)
(-1.22416965009385e-05 -6.498387969307356e-05 -6.092249692578176e-05)
(-0.0001711013310887973 -9.888503948960711e-06 -7.154094247163213e-05)
(0.002511661134908755 -0.0002459248445416144 0.001666157522818749)
(0.0275861214606892 -0.006432547701599273 0.003191625735609228)
(0.0005321605637450194 0.0002910930597316336 0.0006953356467704902)
(-0.03737524092261132 -0.03609010656558288 0.01122132798920164)
(-0.00251634844109258 0.003064005936411883 -0.0006341777530178008)
(0.02109872376807707 -0.008959606579058546 -0.003514847189732585)
(0.002094631013541268 -0.004050166983532226 -0.0001975053002225014)
(-8.542748201861486e-05 0.0003965990848045496 -0.0002419695016796512)
(0.0004048258122729871 0.0004041008785290633 0.0004290681280354256)
(-1.136736348784483e-05 0.0001616625078198387 0.0001450791156415567)
(-0.005380712780117739 -9.564210606686954e-05 -0.001660946159014381)
(0.00318779811537582 0.002581972419419869 0.001632543752250248)
(-0.0009906511404039295 -0.0007066018973741894 0.0005813466078830516)
(0.0001097690039690217 -6.706374588303865e-05 7.516117454587701e-05)
(0.03457665524107641 -0.01843835206397952 0.03014855789576854)
(-0.008100939987737532 -0.0007621040009868381 -0.0002846325967532682)
(-0.01214262772363604 0.003502380404765363 -0.0008840292680689608)
(0.0007098905578702164 -0.002332698969176982 -0.000285087031055704)
(0.01313964291603253 -0.004339258780942951 -0.02108836992519252)
(0.0002094487878195338 0.0002866649288657276 0.003119323547700027)
(0.0006755697762968109 0.00315546530935999 0.001776228349024566)
(0.003001808460629807 0.0003657001747417572 -0.0004287501257822336)
(0.001683396978705921 0.001211308896689172 -0.0009434027706382753)
(-0.005440383515684626 0.0003440093543529738 0.0006106571201277003)
(-0.008550076338194341 -0.000150792510222755 0.002533874376826641)
(-0.002206126328370414 -0.004460875071624988 -0.0005688110942340603)
(0.00259725323936829 -0.0002365542107335674 0.000600845118506354)
(0.003562083036317779 0.0001619254267250939 -0.001351803145415013)
(0.0002759765567193711 0.0002059636309870128 -2.274100644683217e-05)
(0.002230532048881437 0.000271338319811639 -0.00011856906640562)
(-0.0002456102387237112 -0.008087512701787472 -0.002743393744640845)
(0.009495211073271642 0.0004747270447713726 -0.00107698483570857)
(-0.0008643440005664054 -0.0005548138017738037 -0.000194816836971721)
(-0.001529192738415342 -0.0003239791156394471 0.01024179076888292)
(0.003842457240457597 0.0005723714264173122 0.001238688487810994)
(-0.001427951867262188 0.0001778910986066056 0.0009964410429917031)
(-0.002445487984461629 0.0002007388455070539 -0.001719159500055562)
(0.0008651893687350729 0.001134061478137434 0.0009120104335794896)
(0.01200813943186676 0.0003769375682757536 0.005021169654995753)
(0.000299023995391861 0.0001936180453302137 -2.221629128565361e-05)
(0.0008737890251113076 0.0003011639614640482 -3.729546058191743e-05)
(-0.001987221176568238 0.0001028778451456116 -0.0002482432747303748)
(-0.0004656387278570618 9.704018102925325e-05 -0.0002815289949026367)
(-0.0002199559094125697 0.0004440573492656209 -0.001416861277184918)
(0.0002244789040551095 -0.0001037513586692815 -0.0001091836457756116)
(0.0001314691059143281 -7.609156995305808e-05 4.448505483732686e-05)
(-9.580052008845925e-05 4.021585550829561e-05 -3.371189233681825e-05)
(0.001123583378323875 0.000712069274005129 -0.002184351706035862)
(-0.00176386245651367 0.000495204159513619 0.005983586571771119)
(0.004411822464727675 0.0004406178818083253 -0.0008549956496199351)
(-0.0004551799221640686 0.0002227871234495881 0.007099597508880406)
(0.001303431674826986 -0.0002244830895733956 -0.001798908977960064)
(-0.0001650732462474848 -6.750383590373254e-05 -0.0001141978017468192)
(-5.695104386083219e-05 6.239000118042807e-05 1.044296179270901e-05)
(0.0008875238297698112 -0.0004204117277217115 0.0001718397324809793)
(-0.0002659790167019695 -0.001503828226172149 0.0007052652570913619)
(0.001552785032472562 -9.154110427561796e-05 -0.002307871675596345)
(-6.787485401807339e-05 -5.528772472321815e-05 -8.082529891095336e-05)
(-0.007867666987039435 -3.250452174895858e-05 0.005016943202545071)
(2.773576543835364e-05 -2.221037295857606e-05 9.900206580588361e-05)
(-0.004808159486357893 -0.0003088155929425664 0.0004605924134673717)
(0.0004575731050531009 -2.614031610829475e-05 -0.0001203294782765874)
(-0.001860639651181682 0.0003536103612429708 0.0006263514340859918)
(-0.002189013061440459 -0.002438162076917057 0.004189525086095816)
(0.004444560195760418 0.0005500176490360736 -5.679674932905694e-05)
(9.593671550782521e-05 -4.163910084201081e-05 -0.0001422771087221149)
(-0.01655790328838833 0.02617202974209581 -0.07531883410573864)
(0.000557772230944048 -0.0005419736403199336 0.001757734587562472)
(0.02569093175161326 0.00517322801152459 -0.009262363644168364)
(-0.004903957389987439 0.01498777188424174 -0.01490887216701091)
(4.530551638855174e-05 6.731785314550664e-05 9.089874408556928e-05)
(0.0001548346135591861 0.02836354779343559 -0.004712528995791909)
(0.001279261809053698 -0.0006098426151316591 -0.002397876012109102)
(-0.0006176376755328949 0.0001037648290618959 -0.001810980774975939)
(-0.0007350880785695829 4.804447021202027e-05 -0.0003857290274160521)
(-0.005573230704768874 0.003960903007840728 0.001437807276055928)
(-0.002232667736913353 -0.00122145669417745 0.0009380878572454497)
(0.0003750930598500208 -7.311950241538436e-05 -0.0001511776995611021)
(-0.01005355762420483 0.002891687045738602 -0.0007956599145723699)
(0.009245821178067765 0.005434144281750103 0.002307521088217717)
(0.001535291644192842 -0.0003064409925858361 -6.302175456461022e-05)
(0.01528280833999485 -0.008095983620273009 -0.000589348733944074)
(0.0002236188227755827 3.264960705294889e-05 -0.0001193284558470352)
(-0.004472018838423015 -0.002325630604168233 0.001324705857634747)
(0.002238699076596575 -0.002409745354841287 0.0003183524752897143)
(4.537288761896582e-05 5.175241693063638e-05 1.423036134626449e-06)
(-0.004185197786358246 -0.0004171484879205447 -0.008054130034894507)
(-0.005535904317185609 -0.002602756883168383 -0.003481534254315838)
(-0.004743280757998345 0.003685804118834282 0.01021492153536191)
(-0.0003667081782795447 0.0002972580992318296 0.0001583227216849679)
(0.0003177779672028847 0.0004151912176798266 -0.0005024110077384608)
(-8.637818919300183e-05 -0.0001318658831400206 -1.513699411253211e-05)
(7.544233348720154e-06 6.049415789075773e-05 2.142020391524432e-05)
(-5.228859845860791e-05 -0.0001360978350278565 0.0002161985893764528)
(-0.00402946716475424 -0.0008124770376856918 0.001190277493126409)
(0.006512687635301368 0.002129259501754195 -8.759055941813358e-05)
(-0.01610933403520721 0.003779133819654699 0.0005401480778031136)
(-0.00774326323671906 -0.009794443338651567 -0.002297360255707972)
(0.0004044361087697864 1.084758765088694e-05 -8.598840371268784e-05)
(-0.01369968852738523 0.0009930287322375136 -0.0009821866843200836)
(6.317947977796772e-05 0.000304260126244877 0.0002121037255298146)
(-3.163019839471355e-05 -5.6928830502998e-05 -8.806533041000172e-05)
(0.09148765536747039 0.00485087248543345 -0.003094004093147827)
(-4.978584834525091e-05 -3.707849516695467e-05 -0.0001023311271440833)
(-0.006429968402931979 0.002581777659038 0.003056653149353633)
(-0.0002888829791996468 0.0001716828895142601 -0.0001711149451100217)
(6.716113046457566e-05 6.520616561109373e-05 0.0002501400111061543)
(-0.0002793442184173296 0.0001505524218311258 -1.56573767588405e-06)
(0.002254782690911012 -0.009389047791061863 0.001133273011483599)
(7.696881283138262e-05 0.0002014657457901995 0.0003316956426105806)
(0.005274903701314509 -0.0004116695058838989 -0.0003072331027960523)
(0.04108281745809002 0.0131386434886741 0.002292844740373817)
(0.0003102768832127512 -0.0001013696170268569 5.381901737314194e-06)
(-0.0004038921794670104 1.985177717299432e-05 -0.0002562179355756809)
(0.002283854862265114 -0.001548859288103493 0.003152877831054309)
(-0.0001124314840532233 0.0001101078013488224 -4.661550695333097e-05)
(0.0003513311121963167 0.0001649718894454517 -6.679529708669163e-05)
(0.0005641566419057628 0.0001160451674550767 6.980874911271541e-06)
(-0.01801509892570644 -0.007330269196046162 -0.0009265547851010401)
(-0.0002813040354368376 -0.000120750595393761 -0.0003065447612155216)
(2.377042753419393e-05 3.967079145899477e-05 6.634710569279435e-05)
(0.02576565637358354 0.006075959500268692 0.006568580096116674)
(-0.0001038626467266629 -5.010649322254795e-05 0.0001508082739609887)
(-0.01913190795094496 -0.01122272672155372 0.007821599107129073)
(-6.250472784000296e-05 -0.0004418101658121108 0.0001364423495171014)
(0.005014375724437135 0.01288372462170415 -0.0005642438611988196)
(-0.004215827605461298 -0.001632749886905765 -0.003905718125961114)
(-0.02859314312504337 0.005496700637057286 -0.002532540043608386)
(0.0008209857789089983 -0.0003737485537575858 -0.0001861404692565461)
(0.001789444124665629 0.00261657573836597 0.001463623225314554)
(-2.08725218055509e-05 -0.0002380779694479283 -1.787178506972711e-05)
(0.006746433321336618 0.0003186780437824509 0.003571304388003909)
(-0.002033414579637141 0.0009168303261358078 -0.001809515860024401)
(-0.003853907639106693 0.004463552055922223 -0.009166226188367276)
(0.0008730976547215895 -8.470057437049382e-05 -0.0006162150390880323)
(-0.001118139258678658 -0.001773782479448881 -0.002627340421634594)
(3.147039108865687e-05 -6.192862284466006e-05 -2.759375771466731e-05)
(0.0002914834546398152 6.034994050457183e-05 9.575146807026751e-05)
(0.008166275224138264 -0.002544409473518749 0.0005599835867046486)
(-0.0003671508082421218 -0.002523531564725258 -0.001832188052743736)
(0.001898244201932815 -0.002318248969514971 0.003485780451384321)
(0.0004048092126149984 -7.529666890413898e-05 -4.467576972404025e-05)
(-1.828504178624477e-05 -1.128122061722721e-05 3.191141156585122e-05)
(6.611811805125323e-05 -0.0001081391645705345 4.864238072500393e-06)
(-0.0004124131703610954 -7.712137412029397e-05 0.0003853941519298087)
(0.01003873500393687 0.0003121390282294921 -0.002557855029428154)
(0.0004584411462094829 -0.0001449052870018522 -0.0001410105908455027)
(0.0001025393521803418 -3.888422538782341e-05 6.787151764654694e-05)
(0.007179382450464254 -0.04064904363026162 0.02949629464970696)
(-0.0008040458793758141 0.000457658885631744 4.496595793750916e-05)
(-0.002296206780846525 -0.0002974933401796498 0.002955139887763251)
(0.002917395264338469 -0.0004281351380678771 0.0005531924865358978)
(0.0003700613131140682 -0.0005790267788087279 0.001174621234087537)
(0.002976529953354316 0.001001633326830129 0.0002492125588246347)
(-0.006226666827894134 -0.0006932203177947673 -0.001789711355890526)
(0.002739027734168392 0.001926356867873467 -2.823159266681155e-05)
(0.0002613500532534388 0.0007113114822531869 0.0001716457141360009)
(-0.004024541478136081 -0.0069203327057868 0.01814959506003654)
(-0.0002772675459586372 -0.0002142563530975142 1.63513245369918e-06)
(3.492411919425855e-06 -0.0006213466591112856 0.0008519118158662694)
(0.0005673596544277897 0.0095853820565519 -0.001276038535844249)
(-0.01046652532052182 -0.001882543717905285 0.02527289224916673)
(-0.002331835385575453 -8.64913386755693e-05 -0.002050236042290618)
(-9.670712028692447e-05 6.792245295145051e-05 -6.277791721812575e-05)
(4.173020061157661e-05 -2.089953064006367e-05 -0.0001199160247767097)
(-0.0001037016845073871 6.588545842047734e-05 -6.139084330083791e-05)
(-0.001061107752325681 -4.024520139207086e-05 -1.459486727614146e-06)
(0.001969048589797738 -0.0001455684255870439 -4.619537767358876e-05)
(5.569930807635022e-05 0.005929951499587476 0.002055830254900465)
(-0.0008243904837498168 0.0004335523284614903 0.0009106982307719253)
(0.002502548152851113 0.00066745881390821 0.001629421606326931)
(0.009082726124927167 0.004055516429696863 -0.006580614851680707)
(-8.545639686040759e-05 9.31611516817601e-05 -1.340426261892436e-05)
(-0.003288432770177064 0.00205451169183689 0.003901930792898653)
(-0.000410184063954335 -0.0005553705313733461 0.01187825430236622)
(1.032458434389184e-06 -0.0001344279471323361 8.708803552963259e-06)
(-0.01013401845577747 -0.001822206025675174 -0.0207815287433746)
(0.001055663763009527 0.00165902385444727 0.001326385909693441)
(-0.004712594363385453 0.002526442767385794 0.0007808130086799439)
(-0.007334252012694139 0.0002482158821005428 0.0001204214617070113)
(-0.1096355368592714 0.1067485945177781 0.0007784513136002875)
(0.006865558700051911 -0.000458296263549952 -0.002026673406028028)
(-2.953761038644912e-05 -0.00602067832875516 0.001980851155320059)
(-0.0002876501235498283 -0.0007494187919517925 0.001501756147113722)
(-0.0006985724978562007 -0.0005315781254625094 0.0001874547467757232)
(0.000781532913136631 -0.0001980271097049458 2.381530845275339e-05)
(-0.00395453505237087 -0.002127530680853054 0.003476029145077976)
(0.005038429515320011 -0.001394786645571673 -0.005111782988619054)
(-0.008613821202444021 -0.001512878286068691 -0.0004073310435478995)
(9.554930832843802e-05 -8.031302435167451e-05 -0.0001851976133143367)
(-0.001285255977553703 -0.001158692739453575 -0.002471736984598581)
(-0.0002313708980281229 0.0001130460226745765 -0.0001468568244617045)
(-0.0005997980773856304 -7.651393946615548e-05 0.0002258897754456107)
(-0.0001158829623656815 0.0002104017761547483 0.0001448963478725796)
(0.0008755534786004107 -0.0006585040148275448 0.0002018722172174303)
(0.0006238942395995989 -0.0005830895110686775 5.114513543946997e-05)
(-0.0002495691504932175 -0.0003415041184969247 2.89654314253865e-06)
(0.01771521273673186 -0.01190604093882845 -0.004677074406841687)
(6.497081902125482e-05 0.0001607837705411897 1.591319755799986e-05)
(-0.0007845526828464587 -0.0004507478352383691 0.002485675529982469)
(-9.057188270075026e-05 7.288163222402907e-05 -1.403865527443803e-05)
(-0.01082478218796804 0.0005916605207170339 -0.004055250750062733)
(0.003706169555370339 5.408027391550906e-05 0.0007369306913386138)
(-0.001301511674482382 -0.001489991840506682 -0.001128230237490631)
(0.0004544550499198867 -0.0002834623477471929 4.63647355153673e-07)
(-0.006018433272759625 0.0009391020925511306 -0.0006583181177559519)
(0.000273310884723152 -5.099267329801064e-05 -0.0001263121766953861)
(0.003889210701978234 0.003427913105906083 -0.002771657668734558)
(0.004276507772570076 0.001720287901121494 0.00446799825660337)
(-0.0002735090360361749 0.0005474279770634003 -0.0006607731498852437)
(4.814392263437644e-05 -1.788430590373625e-05 -3.42969100793279e-05)
(-0.000439670066839698 0.007698067667971603 0.005246177295844001)
(-0.0008298746650728184 0.0006185354712320724 -0.000146652610708016)
(0.0001135681511056304 -0.0005100443959206748 0.000290198857642622)
(6.734125894290548e-05 -0.0002704436074292659 9.654955099925927e-05)
(-0.0001012421691762332 1.50767300268842e-05 0.0004180068690787065)
(6.503378709084815e-06 0.000138404927535856 -0.0001602336186498507)
(0.003013073606977139 0.0004412668617831747 0.002480117224109966)
(-2.987272774200743e-05 0.001329193404577392 -0.0006737263001105082)
(-0.001620877810296315 -0.00068693575074126 -0.001204821843328026)
(9.307310109291843e-05 0.0001861410467202423 3.930802163538699e-05)
(-8.866629415566187e-05 5.516356448963795e-05 -5.295089598123082e-05)
(0.001236834922996328 0.00109867646666818 -0.0007653878273359241)
(0.001610575945297396 -0.001838514686631769 1.601756378686954e-05)
(-0.0008484044789492972 1.940500583859795e-05 0.001263634128077707)
(-0.002962605967691139 -0.001634772749013907 0.01333950257379334)
(0.002518404458188724 2.192599074178468e-05 -0.002548785235556141)
(0.0001664138981839659 0.0001442812818667611 -0.0006695262780817149)
(0.004488849835608786 -0.009075461105295769 -0.0004797513719859249)
(9.648090580692754e-06 -0.000410274676425497 0.0001041412272104628)
(-0.0007252919783764342 0.0002979797308227032 -0.0001453629812515682)
(-0.0004223849306249513 -8.105326900153265e-05 -0.0001576642883852626)
(0.0006724734064681569 -0.0003832323504942676 -0.0009318487912509375)
(-0.001205499190915732 4.941313559210666e-05 -0.0001109746449214025)
(-0.002581973346026586 -4.163777700805899e-05 0.004077397627389085)
(0.0002310907571121999 0.0001198004496567788 6.023292469748569e-05)
(0.0004774635839226924 0.0003328774745521864 -0.0001878356299239116)
(8.036386162400968e-05 -0.0006172944494608663 -7.758305558266016e-06)
(0.001033858559629147 -0.001668478516123197 -5.654699600684513e-05)
(0.0001286041655261047 -1.590594352438543e-05 4.78883123157356e-05)
(-0.0004418950242939238 -7.215511611961741e-05 -0.0001572593842136893)
(-4.813306462903049e-05 -7.578699503373611e-06 -1.423628744547841e-05)
(0.005031361310267825 -0.005466975055747015 0.0003112587775187436)
(-0.000113488262747735 4.869707801708136e-05 -3.417015459244286e-05)
(-0.0007036231128948612 -0.001697462697463214 0.0001924022548879821)
(0.0004942660598857464 -0.0003675266057730552 0.000192385663941949)
(-0.0002732600973680557 -0.0001604105229791394 -0.0003237041402541605)
(0.0004191653645674848 0.01241777261106268 -0.001262259333013207)
(-0.0002252164869404738 0.000631707766850508 0.0005247904629384318)
(-0.0003633729847827499 -0.0001213514383977333 0.0001835760667993126)
(-0.0003632892685533121 0.0009455478678014154 0.0001621979531876591)
(0.008159809624080663 0.004955447362239317 0.005074911146510302)
(6.636316592985628e-05 -8.432996857443826e-05 -0.0001793338331681157)
(-0.004053188545041589 -0.0006283551396782278 -0.003191895744429181)
(-0.003611786189549584 0.002214257617497575 -0.001053862662943069)
(-0.000557572347728188 -0.000326634779408342 -0.0001351924368350734)
(-0.004337529153948536 0.0006224613973561604 -0.0008063323874978627)
(-0.001832703269217928 -0.001082890225663292 0.001257858462458654)
(-0.0003518068539805304 -0.000869421281142424 0.00108788806357685)
(0.0001495352593737947 -0.000138045359069554 -0.0003156285624387677)
(0.000503926130848524 -0.001692007992163618 0.0006704512283484241)
(0.0001336558092820187 0.0001647095081553769 -0.0004991629994225403)
(9.055914869558074e-05 -2.089394613681662e-05 -2.513689291105592e-06)
(0.004258668448643686 -0.001158804470877625 -0.000269610972134142)
(0.00113374810101896 -0.002746808272079399 -0.002528621753625025)
(0.0004781443657046659 -5.534684960838772e-06 -1.31297488712639e-05)
(-0.014134570966289 0.007126043481126685 -0.00285899007811522)
(-6.744237707432295e-05 -0.000138094316567386 -0.000259005520757845)
(0.0002738756766033495 0.0003246813576544829 -0.0009733113994605982)
(0.0007331459441471596 -0.0001579430901804666 -0.0001691539580176097)
(0.0001582250247839243 -0.001638339819026141 0.001670053298093835)
(0.0009767156931112771 -7.770993978327998e-05 -0.0007382268537365008)
(6.334265635993811e-05 0.0001170238596457526 1.318973805706475e-05)
(0.0002427488622726431 7.581143521679596e-05 -0.0001076544014663134)
(7.355539849511776e-05 -0.001153748459670662 -0.001208173301958365)
(6.632873476643639e-05 -7.546568238836117e-05 -0.0002270875636099923)
(-6.358718511604653e-05 0.0001080089797562064 -4.816167291394921e-05)
(6.808310368427089e-05 -9.721924005208927e-05 6.673175040682798e-05)
(-0.01175855348847179 0.005886810603538901 -0.002030153727893423)
(-0.0001254340063917582 -0.02386555703872074 -0.001184664403510739)
(0.00163822945299272 -0.0009339305665602523 -6.156942504626775e-05)
(-0.000120018079202754 -6.469966549819346e-05 6.973392689245479e-05)
(0.005255741857799312 -0.0002658504803171254 -0.0001743593046023328)
(0.0002002811338580478 0.0006150106183799613 -0.0002002256073203086)
(0.001305025362284782 -0.0005727890556628874 -0.0002136873235044282)
(-0.0006224299077687387 0.001901448196098154 -0.0006728836510288697)
(-0.02629848527676748 0.002681224533893317 -0.002323561212941683)
(-5.559397125531663e-05 -4.923734470175626e-05 1.492405923215403e-05)
(0.0001127130817567686 2.309054941215442e-05 2.514479209164632e-05)
(0.004133585402511126 0.0002804099559060389 -0.0001126976928639879)