/*--------------------------------*- C++ -*----------------------------------*\
| =========                 |                                                 |
| \\      /  F ield         | OpenFOAM: The Open Source CFD Toolbox           |
|  \\    /   O peration     | Version:  v1906                                 |
|   \\  /    A nd           | Web:      www.OpenFOAM.com                      |
|    \\/     M anipulation  |                                                 |
\*---------------------------------------------------------------------------*/
FoamFile
{
    version     2.0;
    format      ascii;
    class       volScalarField;
    location    "1.7";
    object      p;
}
// * * * * * * * * * * * * * * * * * * * * * * * * * * * * * * * * * * * * * //

dimensions      [0 2 -2 0 0 0 0];


internalField   nonuniform List<scalar> 
19632
(
0.05903766341868076
0.05918396380799527
0.04376514062800507
-1.289223666448841
-0.02039737718126224
0.03690486603184449
0.8856767564594776
0.01900778859610823
0.1128814372604403
-0.04523933417919387
-0.04582458651182478
0.07292650551920868
0.1129405947086617
0.1271275752738376
-0.01181608275538821
0.01330345135732865
0.6038645479613179
-0.3228283872804831
0.05739284779429582
0.05480262479841635
0.01484542888838008
-1.464990634631741
-1.657577862764174
0.05310673524707222
0.04184186213883962
0.0492403209197074
0.05114566915025752
-1.527614161219476
-0.06276025302839858
0.07537483182493937
0.0650748653364102
0.1876459782159542
-0.1654386192325517
-0.6669233470377588
0.1397999109393654
0.08475555387986067
0.06434860890175141
0.04834982524797281
0.04172785054677706
0.08128867677864976
0.03578758219408571
-0.1141877344389122
0.2417655840895099
6.444691901059547
0.04310762381559004
0.02482880031776091
0.03538968049556593
0.04776724186926086
0.1002335050943805
0.4537250977465687
0.232544401175994
0.05061769747578054
0.06103906348486191
0.229413715845139
-0.03680504508005704
0.05590275864466679
0.4673889392761273
0.04536571211346214
0.04095073863051796
0.1073049058780584
0.03344460705638209
0.08446143047171177
-1.207821740746891
-1.619046629086688
0.05096215057640145
-1.415845705173526
-1.478481553389034
0.07424217194832541
0.05854182629094665
-0.0839044707652714
0.04931826013976215
0.06161541191458447
0.02721575588598148
0.06655227112731624
0.04004345501041673
0.06079674451585334
0.02763047843292218
0.5919220636996554
1.079238301928237
-0.05547701690660046
-12.16407265575847
0.3268132806432125
0.1010084262710324
0.1242131601462409
0.05507865061891133
0.01113641538767234
0.04652598267261605
0.05299146612981864
0.4820464736809968
0.2389217822464498
-0.02152506013005285
0.04913818200052744
0.1097850780833628
0.01232682055840883
0.08006159314232993
0.2442083502899342
0.1676010763283939
0.1133712345556789
0.03230388479848127
0.05643721569460072
1.854851684243061
0.04692510287231626
0.0945380800188467
0.02942072521902248
-0.1868869959710428
-0.05018948546605449
0.06860759502596855
-0.06507857949907843
0.03795973834707737
0.04393055071155767
0.1351136556612006
0.05616858468156301
0.183835868398823
-1.729345742831933
0.04754399557469758
0.2651357164312433
-2.319649696050636
-0.02164381245841625
0.1687035393442984
0.02579930642279533
0.05432228313935203
0.09343777700363978
0.1183417187922331
0.03941962936280118
-0.9594766130306956
-0.1265904825885442
0.0761831306949631
0.0876118566549101
-0.03226412688747936
0.03259421349044851
0.1527896022411063
0.08692319251502838
-0.1834585115686213
0.03515257479359582
-0.04069649215975344
-0.005131990737866567
0.1419161826395685
0.3216988282673213
0.07553391520285917
0.1551014699032364
-3.44401270864875
-3.614701141953782
-1.241793222570654
-1.645268104918471
-3.461919666668394
0.02939180364892716
0.05167253820873493
-10.46707139926029
0.05826124828689443
0.05544332742752412
0.2500649350617613
0.2966705967782097
0.2583915742193447
0.04684320164734074
-0.001592881060602014
0.2000952486791303
0.02416856356008142
0.06794556931171554
-0.334242522898195
-1.540970056818856
-2.616290907179979
-2.259354077308415
-2.786700861499037
-1.291145974791749
0.2032546730307659
0.07289593260841003
0.06848255600551933
-0.1408748319505611
-1.268177822035692
0.1504013435486839
-0.01338807879221969
0.05141589847457157
0.108290028266801
0.04924578093455008
0.03951588525757313
-0.2449700749160501
0.05783537309214902
0.05330240544236915
0.06477506984353107
0.0640747070374207
0.03721856426469606
0.06806234021592635
0.05948732996792989
0.03018007286228125
0.05713592173684285
0.0350946924540816
0.07284953417097376
0.04576505377207338
0.04439241270090095
0.06534795309008683
0.02048958206122972
-0.0214720069116498
-0.07309179369913987
0.3003942127538063
0.03598670806988507
0.03645556891832159
0.07874612103714146
-0.1752206809481139
0.321379128382525
1.012769814979496
0.06094958607639848
0.0636937254174077
0.04222206519770686
0.3696272751873556
0.1415125791051356
0.2634970103904645
0.07260325100635091
0.2924203601477704
0.03299017690770006
0.06802592266753409
0.1051561814056194
0.03754349306669193
0.03709126893228254
0.2797786372819814
0.09274872467588917
0.0783244367252767
0.2130380616585761
0.02927622419528136
0.07999415354976697
0.05862344769508448
0.1000273601408893
0.177736156435187
0.09907624417798473
0.02655615173207448
0.09463801226235501
0.05097047266273911
0.04253096933378495
0.5036126748557209
0.106184071738246
0.1243436769186995
0.0573081287281707
0.09608086675918699
0.02415761416511949
0.1076449691887737
0.0342055383771587
0.03300629026230737
0.05408585711351252
-0.03613528691531274
0.02939826098722947
0.1289208467327228
0.03628416460475082
-2.267448197762421
0.0674499623628311
0.01799094648884471
0.06907369443585086
-0.03550111892585979
0.08821031232982611
0.04878148007930359
0.03158012725505304
0.0277936126146615
0.04027285992619779
0.04465562329820953
0.0313784800884653
0.05816728921997073
0.06174303836732465
0.5913485243896712
0.02863481105571469
0.04708777414487324
-0.06492288836593114
0.4534307171252168
0.1159696977103155
0.1459217412569272
0.06075959536403631
0.1038441885653255
0.3269682426447073
0.09720874894551107
0.1128332123807882
0.08283500371534767
0.1101585366947773
0.05085972313253005
0.1077033222333078
0.03198648079633849
0.1146122197647625
0.03226197556435739
-0.02436278105711191
0.09270707285067246
0.1538843241238509
0.4230586332247844
0.03015625199936463
0.8933725653654205
0.04458990391087633
0.1044486157973523
0.07772057787488702
0.066151174737622
0.9722402133118062
0.2101354052591388
0.1132804881690264
0.4257395431585093
1.084065198756434
0.07118002895012711
0.06713522876444229
0.5135128670994649
0.1034891335588086
0.05490595706341923
0.05344117461211208
0.04675105388518722
0.04948247432322181
1.253957843372489
0.03568477013329657
0.1181185547100572
-0.06150867535318563
0.04129733787754887
0.1245243504022394
0.06491615230202567
-1.496695161463511
-0.1514547969740209
0.1605409369229302
0.03531131113171939
0.03140073865772296
0.0343341948127048
-1.159067838783691
-1.015592157081723
-0.08925085045712258
0.1334155315723317
-1.461756176063025
-1.481277739956158
-0.9049786373067835
0.02280294113757442
-2.07555868295547
-4.315931427159394
0.034116124967627
0.09622093459571564
25.04612517228939
-1.89193360198858
0.0766984821646807
0.1184541943712241
0.09927806165959364
-0.5036925331655892
-2.083157953415053
-0.008122752389341889
0.06744190917809266
0.03827558753450648
0.05689433930516306
0.2669383961336599
0.002053878890621072
-0.09975827202771934
0.06589195055689678
-2.202327782070809
0.05112292483322638
-3.256714611634713
0.2806555801321754
-2.121975718496341
-2.335474489636957
0.1014184753596597
-1.346793547788715
0.08179516131348355
-0.6760717283406913
0.03417285433549037
-4.113399343219519
-1.733447397071024
0.3104808067703178
0.07028893287827886
0.2436092089548548
-1.445526583688717
0.07829446534477481
0.04023069175282695
0.04356008208692179
0.03311426623958653
0.1180497290683418
0.1008363399986019
0.04860233430537018
0.03625191541172192
-0.05179965877512219
0.108926039147842
0.1425048075442374
-1.209101901552487
0.3496817830455068
-0.02211977363907261
0.05652953746659176
-4.565794487983776
0.02760570229727397
0.1054904044714675
0.666299901548141
0.2577118639836593
0.2476497069087378
0.09703852677023458
-2.239339143655222
0.0330367979277849
0.03265562738701686
0.2654586215592684
0.1281615471379418
0.08771496634575159
0.1256025887597853
0.06366899721835076
-0.008984763964718907
0.08149522578068322
0.05018568337055924
0.5043311257702811
0.001985718123513675
0.08636406294517221
0.07794520658795898
0.1268508894545092
0.1250813769641104
0.09596078255051034
0.1217443976511705
0.1341186181891819
0.1457330323930959
0.1371468742145326
0.02728436258784039
0.09326503854697758
0.1157301556581904
0.1103894816279206
0.3099981475832365
0.1212386383598317
0.05175503524345464
0.08798209412311216
0.04749759538809555
-0.04445227500721963
12.46582338263928
0.06098051563680435
-0.03442378547188906
0.05702867328342087
0.2037821869802507
0.06201379692940479
0.2891034280859644
0.1969190227629541
0.1053373701945961
0.1374902676363539
0.1887302955043413
0.5795764681736512
0.08996750730956013
0.1954985062370994
0.03991431102902877
1.014552626624844
0.1482757971789225
0.06926589004531816
0.1062345444084713
0.05193412204753477
0.04429735574144759
-0.1439596993001964
0.1090197865415322
0.1057240945707264
0.09094225665217495
0.08471160739381484
0.05343316587738755
0.05229303063905679
0.098464793769078
0.134358710601671
0.137150007846172
0.1183361637269857
0.4443434318590134
0.5662755501024894
0.4084056738034406
0.487856800515903
0.1554887058532787
0.468941198815518
0.04730251648741725
0.5423376035045776
0.1547162880711736
0.1679115784153817
0.4586104381063072
0.2698720000216725
0.05485368191499064
0.3050851740480517
0.181327312010501
0.1131564686598114
0.03029083121973548
0.06708521618438852
0.06839998847389295
0.08806768736794139
0.4085426018895909
0.08348616294350973
0.2207770577037567
0.08729071852592665
0.05273843184584525
0.04422268399523634
0.04020472187332552
0.04997624172327365
0.039001637417623
0.1128530424152938
0.04056799899039624
0.2170600688044779
0.1030033887809859
0.1226044708168276
0.09043366825872498
0.5266666105749358
-0.9208692434561465
0.07347756514719513
0.1850127456342685
0.1167191263635219
0.09982088703834552
0.7604800302992356
0.03878432914444773
0.3056029162591058
0.2790070729196011
-0.5686054219887375
0.0852308091706095
-0.864252552968188
0.04232923610885397
0.06065150273667275
0.08704608355610119
-0.2274749847537144
0.09391845674848232
0.09613787365578638
0.08516869318872206
0.0162564873403988
0.04808519630975099
-0.09411655408550915
0.004641465722375415
-38.97895206097353
0.1152571090169691
0.1221447891376016
0.04884176554431813
0.07721904479084814
0.1067141707886801
0.1575559223963247
0.161140340563232
0.1305389773632164
0.1524111330625209
0.1913015298790357
0.1026133362913938
0.05984245485830653
0.1322128247950428
0.3229548685325827
0.01466334301518509
0.05044905066735145
0.05749699100057671
-0.1459876689644956
0.9755916860789017
0.000347093804332694
0.006541414295669875
0.02497213157932457
0.01294518983795166
-0.8576662618286875
0.2072984458516633
0.1972084583014627
0.003701122297778888
0.1610217997132248
0.08674316967629231
0.08190192714496525
0.04725037072683654
0.06496020234038699
0.05018627578135402
0.05023162631163865
0.08744676366968654
0.163337570871564
0.09973576841667967
0.9262291926500787
0.3855468296899841
-0.2216863034088063
-0.07129672247954782
0.05397711383531367
0.05511565234683846
0.05489636681452439
0.06815091101436364
0.08232904762673117
0.008830337983903177
0.05946716281481584
0.06201525560235035
0.08479975662458566
0.04563423381732628
0.05018332672951459
0.04982439263704408
0.04853548052614547
0.1969409021358514
-1.903153895049432
0.1568412420269195
0.0474804827626651
0.05944122445430137
0.05433695975715723
-0.5779884858031304
0.05189890624572516
0.0240888848729807
0.1170899974470784
0.1185494970151321
-1.656509154464652
-1.112137937801068
0.09151807431705278
0.03084423776739045
0.06169565993326603
-0.7305743538604351
0.03714674454192294
0.3927741656284793
0.09649429556667304
0.05367388227867009
0.1611699746536921
-1.438558490771034
0.04780283781418453
-3.283197782128506
0.0431362938896549
0.05120866183799221
0.03659030178389492
-0.03827543057054269
0.09510872683827457
0.1068899214285269
-0.2562903270103867
0.09188797240780634
0.05454650096437638
0.09161461367083408
0.08850064416085326
-0.2429052058833972
0.09067674216421341
0.08772416179150745
0.1514638842405047
0.06717289542412991
0.3068861424385671
0.09772622352444296
0.07724714881130371
0.04920658170887057
0.09714401811828446
0.05159392657559857
0.1154630600713692
0.02936024887376789
0.1304865934715563
0.2635690242620148
0.03957095535409608
0.05305843455648224
0.09465185039682648
0.0923129020961297
0.06236775540577394
0.03394754707739137
0.03826757078903117
0.04125072966292376
0.2353208010173425
0.08175631789351152
-0.09398034233633325
0.07832679126790056
-0.007237089494243841
-0.5745905253567797
0.02655142562603344
0.03462666349036227
0.08149526878909563
0.04636919439247493
0.05756357406071064
0.05748046569147694
0.4461898067231068
0.04868136932180746
0.04703209459088423
0.03020342759974495
0.01255618935971095
0.04725498530990453
0.03305490638821781
0.05034724191900682
0.02800679868193809
0.01355027549251558
0.05023784119633649
0.06427501668598976
0.04351487414293673
-0.03611194885874769
0.0311106061357173
0.02719348621770778
0.05226859519909307
0.4106100465547345
0.01892095353777041
-0.1255495357109937
0.4879802585356733
0.0353263749905038
0.03234459029485277
0.05054640931661847
0.03655796886168663
0.06108218599374558
0.03481457502194459
0.03602850286021309
0.03690640595199873
-0.04960672405064014
0.06418675662639814
0.03593036240844381
0.03382390279464647
0.0985561477587448
0.06061500899463541
-0.3642303574599958
0.4279020047085062
0.03979767421939338
0.04717080580963631
0.103945489493276
0.04974984145422026
-0.5913347095168416
0.06413883700160958
0.02961333121218823
0.100159035127415
0.2942894383301559
0.06280933701580337
0.04351889463223313
0.0754462001686497
0.06462635080574221
-0.389758363105694
-0.1732132538419666
0.1041861599622436
0.09119309322146184
0.1725845724672195
0.06026963887987146
0.06355774649528173
0.1049963622866836
0.07332838646969689
0.05784562343037714
0.07376638991841789
0.1555085042043471
0.07663516903671973
0.04563574518372886
-0.4706181178569957
0.04356749799700927
0.02909505241268801
0.04781106555456262
0.04514813324281906
0.08811069868390806
0.01131507348696779
-1.231020559716202
0.08096860929110941
0.08306861975005499
0.0375578890180197
0.05495086756698161
0.1857749287426032
-0.1466328734776806
-0.1707809745749455
0.697111253699348
0.01444332121434258
0.01286741387122726
0.0843252127565563
0.05866207344682024
0.05026675930293827
0.04852316083952936
0.0199983316624651
0.07267794377931108
0.04284592830863562
0.055897850206743
0.04626467290968112
0.005799455467299031
0.08097952809251974
0.042481408116691
0.1497976085158023
0.07344871833588924
0.1279618873316723
0.1107432686298357
0.08057799299203686
0.1672524337562331
0.01895177298921999
0.02477367253747136
0.08293989812698743
0.1182012435010914
0.09290724370599912
0.1471984530167832
0.03156803960353186
-0.4667043559754644
0.1341588874388569
0.2590139573176719
-0.04731466205256484
-0.9951781492625043
0.186104767402344
0.1092327819984382
0.1112241711588611
0.2456802365822621
0.07235123209544921
0.1731789253159511
-0.6766857557528494
0.2685062135010776
-0.3075604132324922
-0.08517399628080867
0.2865203601804988
0.1936477817181733
0.02657515269126094
-0.4662606206425798
0.1836892501973122
-1.135968442824941
-0.8416244431342956
0.0739721190846129
-2.971671448886951
-0.404062405701373
0.04047049867504509
0.04676382975385184
0.2146313323108231
0.04737043098000921
0.04306315060652973
0.06923008570823055
0.07254987914159686
0.05890227475158386
0.01210742182509096
-0.07027528208745852
0.05923879773526247
0.07561920436915574
0.07127650619488735
0.08036771326773282
0.03012347388366363
0.1106883377651249
0.09370465446528048
0.132537224474325
0.02964978317718354
0.03210589619158493
0.04256375240455162
0.04256206753696749
0.04189882751173904
0.1140515360458055
0.04281670861101745
0.04724205694956237
0.3624380671191029
0.04704671656466034
0.02595623652607737
0.04891231530058002
-0.01220845878978223
0.05158149169449405
0.04827945259894008
0.04654325124896082
0.08828084030908406
-1.516866026780063
0.09745725331286552
0.1028058164842923
0.2457182698767871
0.02272843949452168
0.03767685483070115
0.03558308699607393
-0.08037250408428515
0.005427762396031178
0.08646722014150994
-0.0894942778840036
0.1651109337940578
0.1297034378507564
-0.01946640233011206
0.1589014947779006
0.1939079539499809
0.0003092754805065946
0.1089066958796404
-0.09990326759927808
0.06136294123283621
-0.02798106701960909
0.5580474608376782
0.133563317008939
-0.04516784289502209
0.07100168756235589
-0.4680644260955099
0.05804871111902601
0.1291432526559328
0.04550147901191336
0.09620081733679757
0.06462801055096688
0.07755331834485492
0.07872313010250494
0.07424977857931371
0.07801811944492434
0.0813632158718233
-0.3019072281717743
0.009796374813776825
-0.0271338526316185
0.06842557789991092
-0.180642026934444
0.1566516377334868
0.08030504939938531
-0.5056423873964827
0.1644482785316262
-3.125078482050932
-0.5533035119328596
-0.4800751140935224
0.08040134500358356
-0.3555543190274766
0.3549397979107504
0.1398087989682811
0.06975258763518193
0.0698555641074444
0.2754366211964525
-0.0213629925830911
0.07743179269422788
0.07108643277080701
0.07079636110627884
0.03131930276173513
0.1701175548961177
0.1034359399926321
0.1261986910625131
-0.05292826419155273
0.1676701856823759
0.1513298284746326
-0.02803709896287147
0.1019344350123391
0.01925310256208574
0.1472908624282618
0.1249340863522876
0.159702129282335
0.1037543138505721
0.1975505682634944
0.199350806120921
0.1261343355936939
0.1225150151111249
0.1177418665228868
0.1176329274579215
0.1166395881672358
0.1494911709003156
0.102676540125388
0.169264671184189
0.09706981968393448
0.06702877637539431
0.1181241405696598
-0.7728191367493673
0.8555952789459831
0.7308162929934821
0.1130958788044927
1.183989948430207
1.631098418988771
1.019010041035257
0.9283404499774243
1.508960361938657
0.04971216318119138
0.09421444619803472
0.1027851306505425
0.07284606057097666
-0.1995608236672232
-0.007872511393277088
0.1438559699177321
-0.000600561235115872
0.1487868999630174
0.03115167503324606
0.08295343150648696
0.2703646689977984
0.1044490839231205
0.0828733734829053
0.08604658159196811
0.06895482263307616
-0.1153183928489785
0.03137661933346098
-0.05463570338554129
-0.1624287338417165
0.05695733385850826
0.05203265823071045
0.07847576740428007
0.03472565556930095
0.04103431411801903
0.1101910815549117
0.06225641734918243
-0.6672845072202644
-0.02424379661728619
-0.09085630854356179
0.2916294212262294
0.0373904901243568
-0.1376440365821021
-0.06005318324028399
-0.1132475355362162
-0.04744534119968611
0.09873758779906118
0.1382632211555805
0.1000817819471375
-0.03080678530440821
0.03708898534364698
0.09882747119278795
0.09099675546191868
0.03549765991056406
0.04937599665617272
0.044594383777134
0.3570147564016984
0.04453712676997376
0.09996539428802517
0.04841916956638979
0.04898781484346643
0.04762110908706558
-0.3635115958069123
0.09654600297928839
0.3033319504090011
-1.480355333321026
0.1370413873998592
0.2312365226778596
0.1914617295335958
0.1652343619451104
0.2195167886476829
0.2157554896049464
0.1012895169422567
0.1536531698532861
0.4135456748053505
0.1724067753090964
-4.937651897057884
0.04359452998452829
0.2949207315314103
0.1471846725466459
-0.1795054934003871
0.1103391227307278
0.1012592563140524
0.05491038823862352
0.06647755311728278
0.09378323060327079
0.07905773789760681
0.08238734330838457
0.04528534965589556
0.1235455557696646
0.14343739047871
0.03557318678873215
0.03827301807335983
-0.3261026803385442
0.05313554670562021
0.1343927750405787
0.05492471084477914
0.02941740471982648
-1.274787561466054
0.08750023777471769
0.0650838147679144
-0.5370909396954945
0.06212671569915301
0.06063332114861826
0.06328516706545635
0.06505325112184079
0.03178577640424367
0.1126830411142031
0.02789480212976753
0.06664716203216801
0.03907741650297845
1.566643243473173
-1.321270347094036
0.03243192352743267
0.05453075331433233
0.06641852225346676
0.09163916368577486
-0.6373804975274751
0.1341554245038153
0.0994559406753152
0.04118671335463876
0.09696859453493867
0.004435323743541771
0.05958019445154007
0.04659186335149753
0.04802505024650099
0.02051724692969324
0.02266042827715338
0.03073877549566713
0.09371018813168892
0.03146213231337049
-0.06671723110534243
0.02847759795759313
0.02705650649560191
0.02462458757138189
0.008686396931455462
0.08824914948494164
0.05242142463187577
0.1111643328088074
0.1072136484388335
0.0003509160231686345
-0.2657860990432894
-0.7039483910214865
3.079473719656093
-0.2525180021682781
-1.615676234436268
-0.01415212363829069
0.08788133245452538
1.098034096207796
0.09892946874334986
0.06423136823860565
0.07810660032887837
0.08206530571400893
0.07309820472502772
-0.1640166962208319
0.1750436937956894
0.1719242348859005
-0.006591895056711563
-0.004495124634085744
0.07983150069118433
0.1244272811525745
-0.1997755000504752
-0.1516649375748477
0.06679179803371084
0.07496806888666278
0.0927648748969528
0.1320582562012816
0.2724045075563842
-0.004135995397054081
0.06143559909625804
0.1214422834292229
0.02111952969759677
-0.1154937532656382
-0.006476378603123481
-0.5689281629997546
-0.05435784743119226
-0.08311205650285269
0.06987153985740559
0.3011115696908796
0.04853438150735807
0.08486915055508953
0.007114603714612955
-0.1419248133830135
-0.1490741149189522
0.04714405994443083
0.005580074683592434
-0.3606922808472992
0.08473642121118352
0.03754094730300579
0.1472851127293427
0.0472491609267008
0.05156499723523527
0.05271481990138524
0.05384162286391261
0.04821688308166237
0.006988104947263267
0.09912059820560479
-0.8898447932780231
0.2552039734009988
0.2012060148553545
0.4308802593612914
0.1760031956603232
0.1099235099393205
0.1218492243308879
0.08857697996994629
0.1118487018360284
-0.07866086458921204
0.06517938610987904
0.0473677772900611
0.05439963730172285
0.1008804636004214
0.02296598331285469
0.06908065581210003
0.06908192356223047
0.1235667987148493
0.2960510697122715
-3.838946160846008
0.06866667370569295
0.4357947328892154
0.01155147826522988
0.03238558586302365
0.02447606305444664
0.05548119406254979
0.07200121794523748
0.05372910334094234
4.137345571822177
0.06807645399048429
-0.03925456578466618
0.01930114215476802
0.07709877714654242
0.05213330094689484
0.05295346854037154
0.01750850722362715
0.08051078926718107
0.07715595088724718
0.06647950786468042
0.08169352717343326
-0.03153023604844663
-0.0004886217483765517
0.03238814694958473
0.137392839311005
0.09182993752404042
0.09342517633563351
0.1302719308802656
-1.092686784287934
0.061623226420908
0.003020915457146817
0.06434408067659506
0.2851343548055066
0.08401467683585184
0.193636702544062
0.0969405255027945
0.1042551908301768
0.1143523030629689
-0.1027514689767908
-0.02285005762266333
0.1055001868497611
-0.2319877705501417
-0.04452389232214647
0.032683847552196
1.057631494387565
0.2786405726954009
0.2574944886430095
0.3124145541278709
0.1962516884472262
0.1832221125905548
0.1923124486615322
0.1763637265171957
0.1888278072511438
0.1225276952990592
0.2152081471928389
-1.31825372222216
0.1133044035684669
-0.04587507684567572
0.113573618683271
-0.5015540763878501
0.1122514140243554
-0.1837343781252668
0.07421418071504643
0.07468116223654403
0.07117648493307277
-0.7128262530251487
0.06899626826502442
0.06390549878323085
0.1744618634643477
0.1650131926417469
0.1696716212641909
0.1500954639285031
0.06523949372065205
0.06411238646657777
0.09104632458674188
0.08902164847095449
0.08133947801443071
0.1955269234760964
-1.222978072633219
0.2241906332891607
-0.1043296386047656
-0.05224038979026229
1.152776095929783
1.020341287056698
-3.387748902937146
0.008799306643064348
-0.304188914555108
-0.09550560890816595
1.751972320170911
0.2508385289352641
0.1427939290898437
0.1852457530894146
0.2826235739112023
0.3241306894186973
0.01740395792309173
0.2402730132532487
0.2455948773964458
0.3193747786625472
0.02622523680265538
0.1724721789160421
-0.08695310099464666
0.1248151831148884
0.1046225007754718
0.1158567692279378
0.2329002600764249
0.04794425897709179
0.1635352896554257
0.03460793169675333
0.08547083766022152
0.02073183933470283
0.04046236281501824
-0.392802526741416
0.08328041309930119
0.07686660226716387
-0.06690196580650416
0.0952599746768813
0.06144165384805996
0.05968312191744533
0.06203959909811629
0.1335334807267251
0.04993679188114295
0.13165266805385
-0.01306663904428859
0.2089628506165669
0.1847959477192938
0.09152750014871411
0.06339092904132347
0.1049702653474015
0.2029198170506607
0.08427563420589601
0.06871398110246779
0.03140528214097082
0.04289971701598304
-0.2825472129344991
0.2913257621867577
0.7307443385435428
-0.05738295603533655
0.2276175439403253
0.7458131264561819
0.1277699044582541
0.0547348461012293
0.1389952377756183
0.09950318780721761
0.04667395362402817
0.2606451944183157
-0.3144763628314942
-0.4240912725161687
0.07647888819282858
-0.4831964630574502
0.07592611212930703
0.1540991322919814
-0.3830335380281795
0.1819856898125355
0.04001937594176601
0.0485648320617665
0.05177650770830833
-0.001807195925531246
-0.167124145178832
-0.03558380619364909
0.2626808986047487
0.1278337738669521
-0.1603100544041902
-0.2366373300054689
0.08694534853793134
0.06242067089019254
0.1139372154662147
0.08855617856039916
0.139169538022345
0.1420708343539869
0.008741118916424243
0.1770326749184041
0.1046284069265749
0.07304923007434742
0.02772007424107437
0.1337005350124918
-0.03150040518648729
0.6117611888278401
0.01134742112811308
0.08425038545795759
0.2861452477995547
-0.1549555874500983
-0.1627611803096942
-0.3304737755849169
0.03473754656429728
-0.3820414211280408
-0.4197695424336751
0.1983886136867647
0.09043507045381842
0.0963463336532295
-0.2097725309964691
0.06827438888297739
-0.2674350578411251
-0.3685284382521312
-0.8312588798945946
0.1807127134527776
0.04696240898117272
0.003168289295678129
-0.0009154660440511514
0.3740082126616203
-0.01509229838848103
-0.1097792199505105
-0.08630337163229025
0.08565687813391419
-0.4024131092589794
0.1118423558367576
0.06461783191671025
-0.476663008217512
0.06203664881683713
0.05452143783917621
0.1863708788758623
0.03108431450289194
0.08267042960421836
0.1154863936466374
0.06157999182224947
0.07904303147667033
0.1882439393036638
0.04328131858443179
0.06541306076032906
0.09833521471714705
0.0399199929669892
0.172666540687941
-1.474768092317206
0.1597285996452663
0.1385375491969164
0.2210081397433352
0.05563224474954131
0.06606411232919145
1.096655430941077
0.2971667515890999
-0.290236585414544
0.08456337117023829
0.3107009319765506
-1.248038317721934
-0.07373204377689536
0.1359218395415663
0.03033613969123597
0.04526091192802018
0.05525102211743273
0.0452027509217249
0.1884633501350651
0.08242303129029974
0.1120647151561927
0.05569006194462962
0.123828758712922
-0.03193917234574833
0.05787932282570946
0.08551775850015941
0.1443606309645858
-0.1578595915399163
-0.4057713430970331
0.1339209832820928
-0.08656291993936993
0.1048409945747512
0.04221228226186944
0.1829339202535669
0.04687510787143514
-0.005581272762794118
0.01116589153104604
-0.001043146352454878
0.01825196000758473
0.004168827400407601
0.56228967295475
-0.8130518720711034
0.1675784778727256
-0.5510041469455683
-0.0264237000938922
0.09654946941891317
0.07255111738029306
0.02536405299264381
-0.2909367341980647
0.08343936236481553
0.01302678646075689
-0.3302946855528488
0.05500556389678832
-0.1794415813713036
0.2754104294212413
0.114692520947843
-0.1389273877358052
-1.060813547514445
0.5144064010642795
0.182196354472833
-0.1000673523424457
0.2957751949904705
-0.2423666411497104
0.01014300138894627
-0.2012043994650281
-0.1544612881364359
-0.4385196290921782
-0.386765304858938
-0.2220602299181819
0.04977332447152369
0.1009283292883221
-0.08284275969166348
0.05128361115076475
0.09062456897178232
-0.03851191207560475
0.04525240331819129
0.05625647807435055
0.2538156773860599
0.04810657347397949
0.04920879483917964
0.08678713347971186
0.01406756599760492
-0.01573876558061213
-0.1018610281160128
0.02227544364287166
0.07065008710945977
0.08530858050056821
0.1151261326093985
-0.2386171421915853
0.1091236136695368
0.08499444972172827
0.06939572964386256
0.08167348797977982
-0.03797095351713697
0.06990022649018714
0.08880722046645181
0.1612302661346322
-0.1249851329007246
0.1722081281373669
0.05929591097557052
0.1393978657426344
0.1739156115835289
0.1097211061391246
0.05914723717460794
0.1060376438461028
0.1448605706458663
0.1562647873282088
0.07223965226783116
0.03933144319334964
-0.9133736775470433
-0.6830687481573866
-0.09716314757734391
0.01567794037750569
-0.005182995706421599
0.04238289226399636
0.01314414289482666
0.009871567961351734
-0.8346725418766741
-0.04363184423758603
-0.2614350130560375
-0.1607923464314685
0.1538838042170168
0.1388067709303739
0.08073879149915093
-0.08844158828117152
0.06511495228759766
-0.5824862915991215
-0.3556426843277569
0.02158830472444836
0.09777768251839937
0.158782209617114
0.3409471135992851
-0.1676256911973904
0.04301556503491757
0.1930154723679888
0.1490767860097647
-0.4060824252188874
-0.6955813873328146
-0.1358874827013295
-0.0419938892303408
-0.02005710774584278
0.07534621793367526
0.1345227419377835
-0.1018014168698443
0.723162807609053
-0.316106104652011
0.1919182373024102
0.06856872864980068
0.04891594797626821
-0.2356337705536087
-0.9504344851266391
0.03505603549256911
-0.892143077258729
-0.07980791477028953
-0.1723507523319937
-0.103702879306734
-0.01021034685246797
-0.9590982632962177
-0.0643631423080646
0.09788573479991422
0.1330129009799782
-3.402042436217098
0.4257635562143074
0.008590856449731952
0.2851774901776534
0.07522203051374304
0.03451831585054123
0.2057463966643943
-0.05566232522738637