/*--------------------------------*- C++ -*----------------------------------*\
| =========                 |                                                 |
| \\      /  F ield         | OpenFOAM: The Open Source CFD Toolbox           |
|  \\    /   O peration     | Version:  v1906                                 |
|   \\  /    A nd           | Web:      www.OpenFOAM.com                      |
|    \\/     M anipulation  |                                                 |
\*---------------------------------------------------------------------------*/
FoamFile
{
    version     2.0;
    format      ascii;
    class       volVectorField;
    location    "1.7";
    object      U;
}
// * * * * * * * * * * * * * * * * * * * * * * * * * * * * * * * * * * * * * //

dimensions      [0 1 -1 0 0 0 0];


internalField   nonuniform List<vector> 
19632
(
(5.020274621785714 0.01311326235450141 -0.01147728000003453)
(5.000346277418274 0.009577656736876961 -4.499347484462044e-05)
(5.000256419205464 0.001086878427124578 -0.001284776737698649)
(5.091411465495127 0.110103003029407 -0.2270143358161859)
(5.000783493993765 0.00433432981049828 -0.01231644520613225)
(4.99838946739159 0.001843029323946002 0.0007592764033741062)
(5.007157832044792 0.04093849106080838 0.1002000921033509)
(4.999249509661339 -0.0001043837178575295 -0.002712995179920145)
(5.000115961610942 -0.001058208027074671 -0.009168000110468097)
(5.049859944568532 0.04543266377406201 0.00706982003973544)
(5.04418940020924 -0.01179500067195343 0.005916399996160976)
(5.011933430434256 0.01501345409225902 -0.00392547228380353)
(5.000558334934135 0.0003077576882399428 0.0001470524239059843)
(5.000865970808134 -0.0008003048155252223 0.0007902706436073755)
(5.027732158266176 -0.02786488305618966 0.006604237732953666)
(5.036040625699326 0.004114110909297105 -0.006457716051933379)
(4.988477365289413 0.009333739084276444 -0.00613703855648102)
(5.014155531712257 0.007897297544152464 0.06170809833237414)
(4.999233161878528 -0.000398957626178337 -0.001193387245044672)
(5.001215813024904 0.006808444305715196 -0.000758529725691549)
(5.042874314714637 0.004054719247699304 0.002773891950244474)
(5.107814796630865 0.135826779877117 -0.2060039633339565)
(4.830782752328284 0.02909263172801931 -0.2205147682701928)
(4.999568898957929 0.003825067884021479 -0.002856947025368793)
(5.001271428570168 0.0001336032627292815 -9.583856183329497e-05)
(5.001407669527036 -0.0005501389324918988 0.0009508299572809319)
(4.999549250752343 -0.0008325340763973157 -0.0005587001986051564)
(5.010365683287286 0.07843126284176624 -0.3364071901715457)
(4.988282577065766 -0.004990313655011222 0.02036735132468291)
(5.001259783907182 -0.0002285017567058742 -0.0004775162482743281)
(5.000011466750699 0.001014263137397905 0.007584056030136843)
(4.999565543763918 -0.006439474696006323 -0.009397314547847797)
(5.061875116196688 -0.004243342657472353 -0.08224553028782033)
(5.179294741203377 -0.02086153736173578 -0.2848434915419119)
(5.00151190449915 0.0001334504458196454 -0.003472781377767201)
(5.000797932190296 0.000165643441751966 0.0003468600281766744)
(4.999578053539914 0.002100312884239256 -0.003186981367245452)
(4.999590579594217 0.0002977903810952867 0.0003300282704481731)
(5.000029685500468 0.001219910661349308 -0.0003368173638088398)
(5.025992950157464 -0.0112700767369872 0.008093065137878268)
(5.001394540562416 0.0009500534613935242 -0.0008811166116371831)
(5.008585647459146 -0.01447175504880411 0.007227634681750244)
(5.007915074303802 -0.03823466858754877 0.01389994141570655)
(6.092652411694988 0.6790038294000186 -0.2649814767891285)
(5.000533485701629 0.0002339458717816412 -0.000468456803612204)
(5.001323966347314 1.927387188286553e-05 -0.000415362688307595)
(5.000121754933897 0.0005156247777555412 -0.0001255820411371235)
(5.000257982951956 0.0004172400295230276 -0.0002008241024389982)
(4.991083953150673 -0.0138045774463871 0.01093722560879002)
(4.982087004920084 -0.03348200700140219 0.04182849844155462)
(4.998456930826947 0.004492752921947166 -0.001809143965416364)
(5.001842045102694 0.005483038500321649 0.001266181065036812)
(4.998696576957705 0.003054989178448948 0.007827310004678505)
(5.003899888936992 -0.006697133887236126 0.01000025670352057)
(5.003186501725581 0.007721581940019484 -0.001930823809822494)
(5.002089098341921 0.004291269183096347 -0.0002882814070626331)
(4.999552997322808 -0.002968360300786314 -0.01093869153753068)
(5.001196161023196 0.001562421177293406 -0.001171351054122322)
(4.996121202835761 0.01300923983644531 0.007570117144998315)
(5.037739872038696 -0.01739551779847194 -0.005654208935202393)
(5.000674712552456 0.008322136160698306 -0.0007707222250203465)
(4.999405692835804 0.001356116860443869 0.0007620843380038967)
(4.953088348039349 0.006071529355366107 -0.09382752873438246)
(4.297412729619486 0.7776020886530092 0.4522184063564587)
(5.000465637154516 0.0005005549867988205 -0.0003603015857048654)
(5.124243144462137 -0.08270873002790478 -0.5105938770761419)
(5.184265989875129 0.1093378662712628 -0.1391032820999675)
(4.997839658429243 0.01706587335004943 -0.0006999439529943816)
(5.000078647547991 0.001486455490761848 -0.001770491683459974)
(5.006794574181217 -0.01515610415181114 0.007611645530468026)
(5.019161306354343 -0.001910360864351442 -0.001024870126146166)
(5.000663961133664 8.129208117156856e-05 -0.0006436997047012883)
(4.999742633412547 0.0004424569002904967 -0.0002639720572286438)
(4.997533665370995 0.0120723304449528 0.004244669778707148)
(5.000057032644091 0.0004963369032032956 -0.0003028040162488965)
(5.000357948174023 0.0003240941166893 -0.0003024715378334248)
(4.999865596457941 0.0006573675749395071 0.0001386288257417449)
(4.937460480902331 0.850034837726107 -0.02828892855653617)
(5.175229586698774 -0.233502440213632 -0.3901064614176553)
(5.048658105087611 -0.02180831440465215 0.006833934853626385)
(2.11038343529625 -2.529388683816566 -2.722932303242242)
(4.98650804214861 0.3087512751756871 0.3225643079294593)
(5.000876643918749 0.0006034556577814896 -0.0008774379056866076)
(5.000368955713505 0.0006396282659485276 0.0003116073613780774)
(4.999037136945827 0.001502890295899418 0.0005294264350677827)
(5.001981853015816 0.01753082043106851 -0.02633265795085723)
(5.00018417696691 0.002231190293590541 0.0006481936307954189)
(4.998746090961812 0.003691517880045511 0.0002660151643984299)
(4.998010641440914 -0.000278506213541195 -0.008158106449487041)
(4.985594865993315 0.01859354762078411 -0.04270083609069673)
(5.038847960757274 0.004529637447290894 -0.04115877254154073)
(5.000278709653843 0.004461668739372308 -0.001331029454363243)
(4.988712512506119 -0.01628572564637955 -0.01713320226886241)
(5.029241290333495 0.01617804842713932 0.02510275130966497)
(4.999284281318674 0.01385879545348815 0.0001944992862364122)
(5.003447121881906 1.694239874083885e-05 -0.0043063210146853)
(5.000582216101062 0.002085500461382124 -0.005387167388798179)
(5.000529141279515 6.624305783093226e-05 0.0004740817991851516)
(5.000671906590598 0.005121962619850954 0.001190517511451238)
(4.999939404746831 0.01316140677934172 -0.001737890229195014)
(4.439792081944709 0.4751484893440846 0.3098424912128716)
(5.000359233544122 -0.001659748008528725 -0.001728031409939989)
(5.017935024818364 -0.00933632082141697 -0.005273440721451935)
(4.999779787976687 0.002658663005902768 -0.0001783377607614859)
(5.038385183995782 0.1587544605650628 0.2170215621850615)
(5.063779059278576 0.01655365643747792 -0.01632253126807845)
(5.026695757079977 -0.07673564824753143 -0.02446136334984631)
(5.052740542449125 -0.01662881916746812 -0.00436718300992382)
(5.000276319542357 0.003690785517657084 -0.001538981835795604)
(5.001925339344874 0.002853683883551952 0.004460800515736038)
(4.984581390448303 0.2902016751316887 0.3479278386939267)
(5.002024007624738 0.002454278114738071 5.221679464224083e-05)
(5.000822286725793 0.0007931065207856104 -0.002915171132227312)
(5.138380246818866 0.1653451801184146 0.02694938426656909)
(5.001355063853692 0.000422701611821107 0.0009583950493243445)
(5.057295875261539 -0.03039979518281788 -0.00463163138897404)
(5.020752900228028 0.145360177075559 -0.7725528319365751)
(5.034766599737006 0.2238142778435013 0.01510138970214194)
(4.999540979735581 0.004635218965486133 0.008059761995919922)
(4.99976042127806 0.001733944087788216 0.0003125333775646981)
(4.99931298933577 0.009242502762963243 -0.002273196723326016)
(5.003568527184624 -0.002079499491598009 -0.00573753702131265)
(5.000339431130544 0.0009608709163933904 -0.0001111656523612997)
(5.000015635289859 0.0008815302569669187 -0.0006095438301204546)
(5.182208998980038 -0.06186491682399114 0.05777068129381077)
(5.068579114332223 0.01515660881630993 -0.02875433568670617)
(5.000273936918625 0.001218262755689565 -0.003283498980480802)
(5.009531310079448 -0.0004273740642033633 -0.0004241840184001158)
(4.996396126570073 0.00758703267670497 0.001228153273609592)
(5.000410285619756 -0.00105555914504153 -0.001204851082058893)
(5.001452351675091 -0.00186107753405898 0.001794780385558594)
(5.00066743777633 -0.001010124622674778 0.003280961348671483)
(5.058211589106704 -0.03334249838601671 0.003005429965947488)
(5.000178530725336 0.0007765817571716358 -7.403031371751486e-05)
(5.009023868443023 0.02137678231401153 0.01714014188798854)
(5.027544395115802 0.01489107319037121 -0.03440215769442592)
(5.008320527308613 -0.003217320547933638 -0.005628372614352937)
(4.995839776656839 -0.005062541936588051 -0.003598868185181519)
(5.000126326384508 5.021300199312202e-05 0.0001593297997750145)
(5.006104895273766 -0.01215214078726829 -0.007450180573867642)
(4.465481753576742 -0.02252653847088218 0.2978457987252152)
(4.972696479581506 0.2291880304739194 -0.04111751699266939)
(5.28679075193294 0.606415590154916 -0.03037357152834772)
(4.166907355839725 0.1440690833963221 0.03040479908130393)
(2.917847976819657 -0.71900435080509 -0.8557952857475407)
(5.000073901635727 0.0007499001201596973 -1.670080485369664e-05)
(5.016839605961635 -0.0004249841380661096 -0.006375160947058443)
(3.102898198854744 -0.9139993769954478 0.2052440483182328)
(5.018448289594384 0.01209047231436285 -0.007610069013558948)
(4.999190850318552 0.001207311613095893 -0.0009163006560189672)
(4.995212468072763 -0.001426465412841376 0.001676428836616026)
(4.992940987292567 -0.01476202742510659 0.008969867660292129)
(4.996238578362968 -0.003929605617315779 0.002453355466112206)
(5.00067341611245 0.001976408844816551 0.0002090647530867177)
(5.093089515099982 -0.025694051405909 -0.04189054069439868)
(4.99781765430078 -0.003372184068161864 0.00487259035600457)
(4.999803017558281 0.001257923673223543 -6.506249438007734e-05)
(4.999824491078009 0.007965069640967654 6.797164786918384e-05)
(5.022309376555741 -0.05115197165381284 -0.01071700107607318)
(5.056520234030573 -0.1879911906061702 -0.2876903676327511)
(5.004723244478158 0.2453868227943097 0.2677840178756911)
(4.999333510842319 0.143711466004719 0.1117734538388184)
(4.503154871727148 0.5477570577325996 0.3324196266698894)
(5.181956132853646 0.2869092530928916 -0.05884472897986682)
(4.998153224969768 -0.001382760035924904 0.001497253594242282)
(5.003452331684411 -0.009710201774347102 -0.0128092176381055)
(4.998946147636654 -0.001891879670750037 -0.002463879929938045)
(5.009411120165733 0.007838037241401389 -0.07449027317056289)
(5.123321803512314 0.3542979930876052 -0.1876748017153477)
(5.000636130050458 0.001507248594150856 -0.005306456922542019)
(4.999682591060176 -0.001482201083064651 0.001282977166102275)
(5.015153003469404 -0.004811304039913818 -0.001223781518134466)
(5.012090888979207 0.06599102303199882 0.04818952375950999)
(5.000949219858861 0.0002632709038199087 -0.001640063565742522)
(5.001147070286372 9.085939278462258e-05 -0.0009581300776040598)
(4.531279931625879 -0.1087040923635322 -0.0281703883696995)
(5.000479400257888 0.001331950433259468 0.0001030374191789897)
(5.017172574016819 -0.003539237005761841 -0.001130562916230883)
(5.000557061945489 0.0007001593366447994 -0.0007949845443378044)
(5.000316395183031 0.0003315569057926915 -0.0007273488753604297)
(5.00058309006757 0.0006373935292610838 -6.680767657478769e-05)
(5.0002921641392 0.0004060512125421013 -0.0007800483993651617)
(5.000589706955679 0.0003797163945038577 1.29563659163127e-07)
(5.002937233424357 -0.003023533884576209 0.00364929726451433)
(4.999165056677101 0.01149238415441041 0.0007283064432174564)
(4.999904262379199 0.0008852428641106814 3.322880589704733e-05)
(5.065510074776694 0.005308155897161654 -0.006970504825617957)
(5.000525407651576 -0.0001286211900568811 -1.766149685115736e-05)
(5.001385659935252 -0.001777146202294275 -0.001919193218205868)
(5.000083882320064 0.0004110664271925044 -0.0004378236566633902)
(4.998240923959353 0.001706652758977515 0.0006243004714446086)
(5.038207748105597 -0.001514760406095633 -0.01325286464483755)
(5.039829904732263 -0.03581606042496496 -0.007491423551446616)
(4.998408340286733 0.0004643718786334061 -0.04200339554433943)
(5.00009509893106 -8.215807385253385e-05 -0.0005843466519918733)
(4.999591543126706 0.001568317961843631 -0.001394490288632791)
(5.010586631082344 0.002532245977360637 -0.0006265901408664786)
(5.015986512400853 -0.09036823130668721 0.06210306136148934)
(4.99417460056724 0.0009746731524153831 0.00329788151344522)
(4.960995334415662 -0.0479714101623548 -0.04164915442512694)
(5.000796789383302 0.01113938915995023 -0.0006860918441956069)
(5.016234496711274 -0.003676116473977506 -0.0008978910149530307)
(5.000146403958421 0.0005252217055283189 -0.0007230572482597633)
(4.994877108242603 0.001471341447119308 0.003540948499285161)
(4.979397763760118 -0.01317302652899919 0.01794477481183828)
(4.998345352096908 0.00131976288084525 -0.02801417612422393)
(4.999898235741854 -0.000342335699143494 -0.0006528841727831055)
(4.998671645071733 0.001085753754534217 -0.002136913571514838)
(5.000120657270996 0.0002317705018953084 0.00207730327448726)
(5.000466334418843 0.0003550916312303638 -0.0002981877838256685)
(4.993605541860393 -0.01726592042675761 -0.006207941190476242)
(5.000149645730066 0.0008095836245684809 -0.0003625246584250585)
(4.999723701585287 0.001142540879846692 -2.094129761114621e-05)
(5.000042947728584 -0.001426567085165298 -0.005309868271002965)
(5.000752761748193 -2.036246752959527e-06 -0.01230677379631652)
(4.998942896115022 0.002278296990327859 0.003324058230375463)
(5.00463953487026 -0.003118956312552234 -0.006199122761160763)
(5.001914611827545 0.0014899742744197 -0.003058361204237817)
(4.998579613112606 -0.0003574081413643052 0.0005941088719814671)
(5.012872824959739 -0.008296086872733708 0.005525324083390844)
(5.031428097578647 0.03109642953912752 -0.0223906553342581)
(5.000627712837164 -0.0003940536958835369 0.001544956635568691)
(4.999896446493056 0.001058609058624151 0.0003474214781508071)
(5.000371983030359 0.0009456950778551573 0.0001344963791002598)
(5.152086112054914 -0.04050161879066758 -0.03270025790195392)
(5.004761839633992 0.004585916461622792 0.007724616509036167)
(4.996767817719049 -0.002498704200359231 -0.007016732403396085)
(4.990345114080291 0.004067163035214808 -0.006182473892623326)
(5.002165423799116 -0.001187981069959529 -0.002018568023899215)
(4.999909082682203 0.0001649021336330494 9.519384766569439e-05)
(5.000092967939251 -0.04612561556330114 0.03266128328006822)
(5.00157240314469 0.0003675198359503502 -0.0001131159805133082)
(5.000049087449921 0.001870795264195272 0.003097398349962773)
(5.000650427160851 0.0001126624770557052 -0.0001430325324921669)
(5.001104570227578 -0.01257951056349194 0.002619300252832885)
(5.000727880942311 0.0003336726315817973 -8.137487345021225e-05)
(5.000556973121482 0.000129143861002962 -0.0003661693264549045)
(4.80918765873833 -0.03072969656371266 0.0555647923219475)
(5.020598959251245 -0.007844061924620945 -0.001355957029531895)
(5.000433574141796 0.003766949029867407 -0.008946470347841923)
(5.002077776174109 0.007388192907595968 0.004136205150349289)
(6.091021735399878 0.9510047294142964 0.2483261821526453)
(5.026527900376808 -0.0132848526348106 -0.006451335356565674)
(4.986190884283237 -0.008698223950795839 -0.001115041298923605)
(5.000563752513671 0.0003119551969012364 -0.0005294318526238444)
(4.999568491528826 0.006333434075302848 0.00170503586801504)
(4.997377655664381 0.02049892712610223 0.001441615482328533)
(5.029431004702812 -0.0008794772478143432 0.009883192102237044)
(4.999980640461222 0.000675019526626059 -0.0002077644927849145)
(4.997619573093517 0.0003577292373492219 -0.0003358868242790913)
(5.000244478858588 0.0007044202152180124 -0.0003160636046314538)
(4.999869533112223 0.0003988525280260222 -0.0007668097040668529)
(5.005006655512297 -0.005501264174985291 0.001998875852791257)
(5.013997664126377 -0.006564018568921318 -0.0004747425225551949)
(4.998688904208003 -0.0175562199506768 0.008809056068817352)
(5.153275707496975 0.001717394502333715 -0.01964672289294945)
(5.000380788521072 0.001195608860443397 2.221499547705883e-05)
(5.022274070112454 0.03412987352234242 0.01476618601176609)
(5.048161717737766 -0.01959738345292737 -0.00538043955648516)
(4.963370135336121 -0.02852566093512944 0.008828710729614882)
(4.981073554344764 -0.02618338095768222 -0.02074225256685673)
(5.003562590011531 -0.007514808399340777 -0.005329579240960159)
(4.999499569853926 0.004839963024487256 -0.002603420563071978)
(5.000665081675068 0.0001659101465255329 0.0002232828101997465)
(4.995295673659897 0.01045206416025705 -0.0371915563247532)
(5.000665587507089 0.0003868340023851396 -0.0001289829723163038)
(5.000069197051158 0.0003770832578661434 0.0002981866896648574)
(4.998756841905764 0.004544416339353983 -0.006178135763765387)
(4.999784160395357 0.0006992876181666475 -2.560819070443351e-05)
(4.999885821855936 0.000353486216143617 -0.0009436230602261585)
(5.000597258982165 0.0003460184849688484 6.294421442845973e-05)
(5.000065570426568 0.0007255162699692396 -0.000240321944447509)
(5.013636952123728 0.06425008923992026 0.06844495544231104)
(5.000232547500191 0.0004067673790357511 -9.385987180138908e-05)
(4.987372973394469 0.008770364846622827 -0.0001537558069747622)
(4.99940495418625 0.01296070418319945 0.0008351276314955179)
(5.004267019332923 -0.004905768475488069 -0.004907692697766338)
(4.998272046656396 -0.0003984228572798289 -0.007373732005221504)
(4.999842305771472 0.0009471653401700495 -4.121704513831829e-05)
(4.992646199558312 -0.003858181360861123 -0.1735764626194257)
(4.998980608382813 -0.002382824949879851 -0.002692955069764116)
(4.999263412756765 -0.0001541890229990476 0.06594898657885018)
(5.004084598804151 -0.01096442564158196 0.002449118370348152)
(5.000709439237496 0.0001163516861608352 -0.000685106545984108)
(4.704805895734308 0.8968319936498349 0.639815873068631)
(4.986626132136443 0.000718476625807432 0.08940984300248173)
(5.007590371609059 -0.01397713389947022 -0.006580612965315245)
(4.996972149181351 0.000353152129932469 -0.06888453798682059)
(4.953526171840633 -0.03020825829530965 0.009121086861189526)
(4.999431184651836 -0.01139141386383674 -0.0004799942343755424)
(5.000735716591937 0.0003577860478361666 -0.0003196079186421215)
(4.987870913156634 0.007055917342067386 0.0005716841435738425)
(4.999026459219508 0.002563716356842 0.004509153446050107)
(4.999728057793583 0.002801945301869454 0.0001077402914793349)
(5.000108417192124 0.0005469351271670331 -0.0003165783080015944)
(5.000069731141924 0.001030286010186699 -0.003784725295837396)
(5.010195011259141 0.01022405033307144 0.001395931322165626)
(5.300143430090518 0.1022404756353036 0.1527196905431375)
(5.00140187121971 0.002060603575968763 -0.0009210364377466589)
(5.00436411690242 -0.0002651433540338745 0.003699049601056786)
(5.042619816062223 -0.01689170943359509 -0.01373382725616896)
(5.002195065210704 0.0002450645065063272 0.002204232278318272)
(5.000868044373168 0.0001310543553751934 0.001212745834904861)
(5.000376059814323 0.000783153648292251 -0.0004583867371375118)
(5.062949786440325 0.2518899113608548 -0.3625048947172892)
(5.010902561379889 -0.02200889945110908 0.00477241163740645)
(4.999093955585868 0.001170051394617041 -0.001236826071819914)
(5.000043988175674 0.0007196881993197302 -0.000193613845216972)
(5.00144152009949 -0.0008922096887946223 -0.0009334205811543854)
(4.999868996454928 0.0005869571228707282 -0.0002352048863694051)
(4.413775044125052 -0.075256146221895 -0.2067502059995723)
(4.083530604179384 0.3157667116657448 -0.4176571750604956)
(5.077721864869269 -0.002853609444747959 0.04632380014180137)
(4.998381656847791 -0.01614944616483658 -0.01056560185568906)
(4.971870475321306 0.3594487952361387 -0.2915238254977009)
(4.060413807878114 0.1339876867803811 -0.234613038356625)
(3.889103832804045 -0.1253795926232716 -0.0722117779929093)
(5.001154309299252 0.001182482286440782 -0.0009271563230780859)
(5.278477454800396 -0.1562515831581021 0.817218905543868)
(4.969010750836048 -0.02708140140979685 0.3729681864712663)
(5.001756819915484 0.003627105341946967 -0.0009989323321035713)
(5.005153569111963 0.008591476803539727 -0.01762302474308183)
(10.66767746793953 -2.419679720704554 -1.389353998974977)
(2.830079741261369 1.757505913194453 -0.6246253067256413)
(5.000315898904409 0.0003197176315848248 0.0001602242515658503)
(5.004042393394151 -0.008914505073805364 -0.001747316322752057)
(5.001666841537366 0.05286051147674725 0.02087723233364799)
(4.782323239078132 0.5495812554126061 -0.121109673002075)
(4.91477471749233 0.177325544681893 -0.1015334476861676)
(4.924734017956368 -0.03492040482171094 -0.009827984621300041)
(4.999634151845104 0.001822599654889724 -0.001679966968562695)
(5.000090994408952 0.0009422913170838813 -0.0002463241672663395)
(4.999005890017656 0.001018032388453548 -0.0004653323487359174)
(4.999660686682257 -0.005868407528166497 -0.01300239599592639)
(5.003561778586329 0.001378680146624291 0.01877788255326683)
(5.000892409599948 0.002281951716082108 -0.02923073730468609)
(4.984448746513737 -0.006092880335996436 0.01661386158452543)
(5.174676431108856 -0.0249224399282432 -0.3601819834494903)
(5.012345760913154 -0.0032380510313076 0.001605960732636756)
(4.031120962882859 0.3951154761709891 -0.348701007702593)
(4.997384835745262 -0.003718349609901729 0.004775897719713588)
(2.938225476430349 0.2656059318299001 0.1311622200118153)
(4.221317222088893 0.2480558335369515 0.4616829460094132)
(5.007798284981831 -0.003624379076877415 -0.002079206495916892)
(4.234822978323764 0.2606802213927076 -0.1230670291386468)
(5.006147673094397 -0.003047580739169789 -0.000675830470361179)
(4.525407897373871 0.1909158064240513 -0.07394385488617801)
(5.00568212435902 -0.01540529938606665 0.005840649419669997)
(4.648228113838039 -0.008575753393911405 -0.270194561032843)
(3.336965632585559 0.1777655744202682 -0.1730838421905909)
(4.990964804429293 0.0003892630204562793 -0.00629704223659283)
(5.001092403221288 0.0005999319446653682 0.0007784974129550947)
(4.982268180203308 0.0180301938619044 0.08166445156608503)
(4.106286752330146 -0.5271903586551927 0.06568228327827999)
(4.99479565649646 -0.01956569899221459 0.01219021260213993)
(5.00021891518852 0.0003178059933796093 -0.0005793702096151123)
(5.000065234518766 0.001137019394910472 -0.001108022445635615)
(4.999906489359241 -0.0008690947781181207 -0.000843919325628809)
(5.000183941055309 -0.0003423913607225727 -0.0001615015327568036)
(5.001448544185035 -0.005584682501821499 0.0008010166906903327)
(5.024294605480104 0.06217903782434353 -0.004893726419758318)
(5.000301945916158 0.000459459269616939 -1.293777901026453e-05)
(5.034213330814388 -0.02127623381474296 6.209014659566844e-05)
(5.002277038024695 -0.001303651498062502 -0.001921476712464876)
(4.978988291304068 0.03271048530312389 0.01362942373285025)
(3.604223575317115 0.1351702761967084 -0.2344396015977077)
(4.995032802103355 0.005442663187139542 0.001725995158289683)
(5.033980102936924 -0.02310821098151804 -0.008172724690357328)
(5.000185600696041 -0.01082730180458884 0.008183871387292244)
(5.383585980057905 -0.03183502519398408 0.7840234209110568)
(5.018404897936744 -0.01122794262715163 -0.0007787760033820543)
(4.9999030066985 -0.0008141856482051383 -0.01984473598470455)
(5.196465026965578 -0.2821969488052338 -0.09458824411416132)
(4.997245082951939 0.0008433174409956071 0.00440432797909257)
(4.996884347255975 0.0005718739213533351 0.004459878552619606)
(5.008514479192223 -0.001808511902182913 -0.002338547335352231)
(4.499741609642147 0.05115618807028248 0.2110420923919517)
(4.999854862931395 0.001259485359057371 0.0003913665402278167)
(4.999409202728259 0.001197331523543978 -0.0002078718091733748)
(4.997063244847017 -0.000528947402277234 0.00364452390419476)
(4.995729403425216 0.05329534218126321 -0.05305380527578357)
(5.000692843855003 0.0003176154276439078 4.500822137406304e-05)
(5.000214027428611 -0.001044651195673931 -0.001608953876196601)
(5.00032518702463 0.0004489312572235433 -0.0003226833448841621)
(5.033574739232251 0.01921980168259713 -0.0004621833230415763)
(5.000627229452833 0.0004729164678159682 3.883313618957778e-05)
(5.000004377430072 0.0001142982637685229 0.0001556190073511853)
(4.983554879422448 0.004526469677222812 0.008261560876587134)
(5.051122004883085 -0.0145115201263607 -0.01801783531236621)
(5.000529363476166 0.0002327255180731601 -5.88705764353863e-05)
(5.000472651597576 0.0003205036358983834 -1.298637326837676e-05)
(5.001976878567972 -0.006451630227103775 -0.0006898159205565231)
(5.000256854144152 -0.001818935876018601 -0.0009510987822100707)
(5.000182262795756 0.0005676782814744642 0.0005428931262543282)
(5.000746559359174 -0.0003518377866235906 0.001111530863655374)
(5.000003631041801 -0.0006961403172969702 0.00109414810852059)
(4.999812841892207 0.0007939258089069283 0.001344010857389211)
(5.000303436218115 0.001208772659581171 0.001825766607091461)
(4.999722155854736 0.0007195231971131158 0.0001632105734043845)
(5.000479110570579 0.0005729145756235544 0.0001881787758583066)
(5.000709690300106 -0.001310349062694784 -0.002588260286645742)
(4.999963240311756 -0.001253680802259829 -0.001849272620569459)
(4.944391031420412 0.02727718719861932 -0.0147032559150723)
(5.000782073518599 -0.001950626298429762 -0.002041852292171098)
(5.011227684213091 0.0008132727805234725 -0.003374422274617493)
(5.002951879808288 0.0009264747962847515 -0.001409869637565865)
(5.000258938209055 0.0007604207429887905 -0.000612995044381966)
(4.998419347825402 0.01042291314599283 0.02840411592617766)
(6.458608668705655 0.6244919664267157 -1.854421787471353)
(5.000552667008441 -0.0004524164375429847 -0.01024536390116904)
(5.035586759235938 0.0329195612844308 -0.05416220972452707)
(5.000507499692595 0.0001141302151924185 -0.0009099951364131861)
(5.05157170201383 -0.04439748256453909 0.005177433357746563)
(5.000492782434439 -2.27373017728706e-05 -0.001563384854651822)
(4.999607372421736 0.005602815307284639 -0.004826651963343274)
(4.99573315477287 -0.002926852864596944 -0.003911716203397473)
(5.001717041163029 0.004103836838988086 -0.0004705012342520508)
(5.005096858333743 0.05906333612550387 -0.0390631880865712)
(4.999639054411234 -0.0002909764201895485 0.01013776879235973)
(4.97594254531723 -0.004431118058363054 0.004609126672382237)
(5.001341402348266 -0.00158952501517406 0.0002514889185355262)
(4.999266043598125 0.001612368614259517 0.0003222474349597007)
(5.000369539329694 0.0006874134084323659 -2.512254298185204e-05)
(5.235543250601438 -0.09131932318316793 0.4394526830883948)
(5.001940591454009 2.602862434793973e-05 0.0002075333837794365)
(4.999875124013617 0.0003439144868025819 0.0002336184301847931)
(5.000551758304439 0.0005598109713949593 0.0001707595317007017)
(4.999793152409939 -6.589892355748876e-05 -0.0007284841117534801)
(5.003147416744596 -0.002072645451596851 -0.001187052543785938)
(5.057628719978291 -0.001656582711495846 0.038313714810717)
(5.000385093985805 0.0005816265121080014 0.000431696450901235)
(5.000449672443138 0.0004635536430068044 7.153188620316305e-05)
(5.000280527798016 -8.98386173998703e-05 0.0008208014429486098)
(5.000721094232479 0.0002128858532230617 0.0005257909351617579)
(5.00044913099421 0.0002588984359488626 -0.0009118223286323166)
(5.000478577737002 0.0005294529019005499 -0.001175424370951382)
(5.000580178821487 0.0004438829541506493 0.0006092836268039899)
(5.000581744667643 0.0004977320683327233 0.0007194602173192785)
(5.000147458514569 0.0006299994139113037 0.0003465912189693405)
(5.000449654712396 0.001173913146705503 0.0007561387963080883)
(4.989694630953397 0.009390811654012034 -0.009507137854148901)
(5.018771121904772 -0.0007803450735519367 0.07467024532404866)
(4.992177362145243 0.009374784632624289 -0.001268884113694069)
(4.989558587939082 0.005421950796999968 -0.00392020069635208)
(5.01582125096745 0.009249219780518309 0.01067317363788982)
(4.988181138233004 0.009535805076873899 0.0002752063961807709)
(5.000067112386106 0.0008440968505500915 0.0005469746885835714)
(4.983624237932266 0.003030203818413848 0.01057748839424265)
(4.999478027038814 0.001778418669978497 0.0001516848735587816)
(4.999354751842042 0.001324746347770993 -0.0003265823215880693)
(4.986502441469471 -0.002858894827465565 0.001483499015973854)
(4.998722655312481 0.003606869070445058 0.002369913221618869)
(5.000529647707123 0.0005039813279354439 -0.0003702468553351597)
(4.996856029873705 0.003166926096529109 0.001662112508269835)
(4.998971269108226 -7.033573280723472e-05 0.0009433042827463702)
(5.002601081745995 -0.004233206442500552 -0.002150393827190392)
(4.999763379717503 0.0004924971200912754 0.0003240835160294368)
(4.999852656303625 0.0028634410039403 -0.001379996416268666)
(4.999770090081607 0.004155997630670902 0.0008167523181436391)
(5.009522055973629 -0.01483720454665601 -0.001029418854678637)
(4.978835805793698 -0.007580595129965178 -0.004137979518143399)
(5.005157730421817 0.000414020035096648 -0.001311331089087577)
(4.997976292021039 0.001201183511615475 0.0004988693095894186)
(4.999334382576262 0.003038898152754611 -0.001617584032637967)
(5.000086750630575 0.002669727723077071 -0.0008925376609102081)
(5.000011716408658 0.001758477064509465 -0.0008143555722480254)