/*--------------------------------*- C++ -*----------------------------------*\
| =========                 |                                                 |
| \\      /  F ield         | OpenFOAM: The Open Source CFD Toolbox           |
|  \\    /   O peration     | Version:  v1906                                 |
|   \\  /    A nd           | Web:      www.OpenFOAM.com                      |
|    \\/     M anipulation  |                                                 |
\*---------------------------------------------------------------------------*/
FoamFile
{
    version     2.0;
    format      ascii;
    class       volVectorField;
    location    "0.5";
    object      U;
}
// * * * * * * * * * * * * * * * * * * * * * * * * * * * * * * * * * * * * * //

dimensions      [0 1 -1 0 0 0 0];


internalField   nonuniform List<vector> 
19631
(
(5.033518326865638 0.01499717368922658 0.02535253968857353)
(4.998401972348278 0.06662598366468485 -0.01782457054134472)
(4.990922250844887 0.02263893878307394 -0.02262406452452907)
(4.48039571330901 0.3153568621926271 -0.4428583245203057)
(5.010328106935745 0.01492308415799484 -0.09564248196379682)
(5.05197069849238 -0.04375393132001253 -0.01585584559232387)
(4.992843332067045 0.001751654131768096 0.0009223449831982048)
(3.049674738149039 -0.1439937450359499 0.04696787261564422)
(4.501409362132831 0.2328265157317025 -0.06251270077653821)
(5.006732283564083 0.001020792679164521 0.003854234784917125)
(4.970832827436583 0.02949457264980775 0.02977747728432027)
(5.057732553436061 -0.03601142687248059 -0.006865589905024443)
(4.362181232648658 0.180023503784733 -0.1688252858580078)
(5.047968390873653 -0.06196648077839981 0.02369223517492922)
(5.000772515056322 0.0003682333690403748 9.58926281528286e-05)
(4.959916578356775 0.1040264109412476 0.0788309924335808)
(5.061711803822629 0.01550914383835027 -0.006841078937688919)
(4.706094496843102 -0.05862340966081439 -0.4807002848739944)
(4.768185685505021 0.14619688683416 0.2684170321685331)
(5.065481053926974 -0.07575554013835448 -0.1162506976908296)
(5.028934379684131 0.0639885864951529 0.02264605919206134)
(5.058231485813875 -0.01444237472137283 0.0137871419380392)
(4.618086651042627 0.2162376016159365 0.3355395734746364)
(5.005115858988147 0.004184380785608211 -0.009162889147513386)
(5.071457774791319 -0.03127056131957864 -0.003916151386946062)
(4.990133790690778 0.01316127376253711 -0.00282175933817537)
(5.07317639233393 -0.08316872599977117 0.01464974382071633)
(4.476646013663238 0.0284467731966349 -0.00570997167814119)
(5.050213619152322 0.1605063867366296 0.1674787923925752)
(5.001824258690573 -0.002287432804742182 -0.0002000469123489852)
(5.05030080764178 -0.03640289650418363 0.02076250475477334)
(5.051666712549844 -0.03169506497859753 0.0150023665862102)
(4.977597409714219 -0.04107357975561381 -0.03547817630718986)
(5.013530161227973 0.02489473110266203 0.03168903664731547)
(4.624146995292767 0.07642368863523669 0.05525421045544215)
(4.381146602309967 0.142525320158723 -0.6077318125071686)
(4.99028412636743 0.001741524032455496 0.002242984913519998)
(4.962904637347492 -0.07979287963983611 0.01883191279754278)
(5.073173531925178 -0.06368271099896472 -0.01189408250432426)
(4.973800754473376 -0.008223032672359789 0.02358918358684514)
(4.982978730082783 0.2116554183254721 -0.1329944638919728)
(5.031273373838062 0.0135246579747384 0.03061005818763293)
(4.998581949503869 0.002220912873670487 0.000709237193943811)
(5.000287844159367 0.04177365996658464 0.0536010787160846)
(4.764448957358622 0.04311251277116179 -0.1748990286515556)
(4.72107754589538 0.2150839994725783 0.1037660088036052)
(5.000413355406777 0.001889351162690516 0.001892977378837487)
(5.02619206297214 0.01875914692967388 0.05006019154650025)
(5.035307564171476 0.007693856826114231 0.03448931079758513)
(5.056915470256206 -0.02815857603373955 0.001561190383715947)
(4.915950952963951 -0.005312585226176881 -0.002987282283534821)
(5.002184036649773 0.04408200232416185 0.01861590619979483)
(5.056126105858756 -0.03397442305730175 0.002745008351643495)
(4.613431713904812 0.006573250649673949 0.04598092616776752)
(4.944601540767054 0.08509791619423801 0.069362334103181)
(4.994208312554377 0.02331435910532764 0.03755259937031426)
(5.061193257248327 -0.03979675788524772 -0.003827796821757474)
(5.050429048419468 -0.01117522994353189 -0.02462481789196425)
(3.914909438279567 -0.1772715177262804 0.08009176011251934)
(5.003696461186717 0.001226692447736322 0.001267328728099643)
(5.007079639050537 -0.0002642160679127803 0.002822165212209601)
(3.385173410754615 -0.05068242307915254 -0.1478370485901992)
(4.068080558170342 -0.2274859074639532 -0.002357096002256087)
(5.01224092023806 0.04075055187476446 0.0003620544293958391)
(5.056320017408191 -0.01158712585576471 0.001529235559679711)
(4.038678339716415 -0.04016615798606223 0.05012865189115383)
(5.050761074544861 -0.04068887508494096 0.02761946829984664)
(5.060494094689595 -0.02356508983570203 0.004472518574246426)
(4.932323610730688 0.03951047621108954 0.02028304708030021)
(5.008393530300229 0.001482417069932747 0.004630260753394048)
(5.006891927458845 0.00406830317544579 0.003694790684889459)
(4.064355816768602 0.7647800884121013 -0.8647747609629178)
(5.000359943060529 0.01489085866092806 -0.03547011918797309)
(5.049622710033332 -0.03123889241288155 0.01531515329111427)
(5.101170313190901 -0.03362344070126379 0.02393070904800221)
(4.73737078413319 -0.03949128454202386 -0.2244749250321438)
(4.997778685341316 0.01695936574540985 -0.0207819504050892)
(5.032465423106806 0.1237840720203639 0.03227805676287673)
(4.982752177333638 0.0502877666610509 -0.06412428049021922)
(2.12357907140031 -0.2244138337361931 0.2154634395733855)
(4.99565818376979 0.0041295733344424 0.004886575972484058)
(5.030180313132575 0.02045460369528652 0.03116636700898126)
(4.95195371374724 0.124871613417837 0.05643884903248041)
(5.158008920450238 0.0318692645418032 0.121241579920522)
(2.816323126262265 -0.4277030945234014 -0.6397149515495848)
(2.865843173131694 0.05760864582068492 -1.111864258886559)
(5.053275828174838 -0.03041214221384286 0.003790068105749597)
(4.974698190304223 -0.1020356615097007 -0.103785716700691)
(3.315332565489469 0.1490931727997777 -0.04233681931801668)
(5.020034920680368 0.01659091915799376 0.02917639605985835)
(4.358997619113806 0.09365709605043064 0.2255773507788398)
(5.050160854150607 -0.0356136722100579 0.0194275360971605)
(5.048090136266225 -0.03386920692053793 0.02170754564193693)
(5.049415576926291 -0.03813013047520011 0.01302374461968665)
(5.053930217037738 -0.06761468344299955 -0.0458908012126229)
(3.831450943894649 -0.2736203971322664 0.05785465468086645)
(5.030020068343003 0.01701320729342875 -0.02869661642541885)
(3.515850701259388 0.1654814178867931 0.1742208945929439)
(5.04841374652001 -0.06001819018884028 0.009909525211266746)
(5.060833692347368 -0.01929060958636122 0.0135835399324051)
(5.05191291670513 -0.03348782523828364 0.01740678359736882)
(3.512758808157277 -1.671306682363075 -0.1433227592736334)
(4.412383533301738 -0.1933984788005971 -0.04663237212204875)
(5.022469241170394 0.02821930733473858 0.02090087586867006)
(4.130661906619707 -0.1203973871055304 0.03472473058181369)
(4.753591914389696 0.03167713512262355 -0.2557209408139052)
(3.574451732401315 0.0128914680322516 0.2805606006580199)
(5.053844369084303 -0.04479626366117859 0.0284672676665293)
(5.054365727704411 -0.04433462952967097 0.01935110327619149)
(4.368047538535503 -0.0557788113741183 0.1446213675791609)
(5.023638899506264 0.2250264658530299 0.0978794562081329)
(4.973864894295877 0.09540236438747327 -0.02337247436515725)
(5.106823986808489 -0.03437263390521784 0.06305502245332636)
(4.912637848994764 0.00804635658545357 0.05776311269255571)
(5.031033146690365 -0.01513187763275273 -0.01944025446022768)
(5.033332635221582 -0.08642530567131818 -0.005177293838789746)
(4.495466832596912 0.1615241406548931 -0.06753313638594986)
(5.045062468372929 -0.006508760976462409 -0.01083962138787537)
(5.061706408554103 -0.08282777891521764 -0.04332248201805425)
(5.050983168255609 -0.03913767317818703 0.01251847805359871)
(5.046789030674905 -0.0362704597046667 0.01355677806404371)
(5.047069415525899 -0.01293606198647803 -0.006116815138664759)
(5.051625047705422 -0.02151614086063998 -0.002930583114919767)
(4.299740070110819 0.2701045527859025 -0.05316674585944874)
(5.061649067343777 -0.02591388466819609 0.003201947614163946)
(5.054218630444892 -0.01685216727764925 0.00996103498219068)
(4.933050324379172 0.05487472304040628 -0.05456280506951338)
(5.046643671872641 -0.007184613429197875 -0.01825536612078352)
(5.010201769840161 0.001126360852599032 0.004568463461423207)
(4.8965999751162 0.1867992927840273 0.2975124232674622)
(5.023678487504648 -0.01201105763493979 -0.000542947874962424)
(5.010169549201418 0.03854774868081354 0.01833159083005282)
(5.114878362161744 0.04846957721903141 -0.0717273036437229)
(4.26879058841211 0.2502199971662894 0.3748714853446399)
(5.022688532238578 0.03798881956258852 -0.03744708684093016)
(4.132137221454869 -0.2768456075043528 0.00845971474275526)
(4.365364312396896 -0.1650401748398146 0.3584958622668953)
(5.048072771301505 -0.0743981374115224 -0.02241711496485982)
(3.57021445079619 -0.05151333061124347 0.3182227412621084)
(5.054798137978664 -0.08409467581400273 0.01306244762283092)
(3.939083711380108 -0.3837325534712657 0.1321924262022935)
(5.08894042571586 -0.09905650723415083 0.02856087113232311)
(4.773025108293088 0.04246401237030695 -0.1140487030800008)
(4.998361492856802 -0.002354432329507201 0.003294725560366016)
(5.058674031550133 -0.03938508790378449 0.01512774815001658)
(4.977767265483013 0.1916961338007685 -0.3677206408220357)
(5.027564794049645 -0.02014990179389608 0.03870400570465009)
(5.001836091663847 -0.0005712076143258277 0.003166429377956515)
(4.994896277942345 0.003005636630398855 0.00458009364159733)
(3.731075524416732 -0.1232550658815395 -0.08120004335157993)
(5.050253964943797 -0.03277974549028559 0.01614411883168954)
(5.049541233895736 -0.02470532961484752 0.02424185681086737)
(5.051887701314413 -0.02252914032695202 0.0182827440751304)
(5.047292761727801 -0.01925494549311379 0.01156722182886747)
(5.050928907753982 -0.03768845115354452 0.02487325515652369)
(5.060099569254964 0.04829628547197856 0.04931088878201059)
(4.993706706327274 0.003255964530429228 0.000617691063327822)
(5.08950314407808 0.09438752096704608 0.2029745598234798)
(3.053984033609455 0.03784579485139193 -0.04815117118966827)
(4.924645937602239 0.008587670717859172 0.001537231549217928)
(5.044043389794199 -0.02014407587876406 0.01973069395988422)
(4.995206114226333 0.00729655616384265 -0.001280394690468234)
(5.043243580898805 -0.02639066780419127 0.01848809255260158)
(5.044495896915767 -0.03199977414222008 0.009114010044166022)
(4.986602383323019 0.01305329770608199 0.003293271020901482)
(4.987375966044183 0.01207196415645273 -0.0009679818707042702)
(5.05818953035963 -0.040800179721449 0.003804140345476404)
(5.023536035837321 -0.007090349168473249 0.0004373081296280353)
(4.433356244691816 -0.1030787401578497 0.2347684632478879)
(5.045948408055422 0.01925511067066579 0.04439841335834595)
(5.060350891509322 -0.06254753908715233 -0.007242777598251328)
(5.04633618324733 -0.00577365549292404 -0.04041369953851491)
(5.064073215110196 -0.05090049725578596 -0.00999686992916839)
(5.051407308724554 -0.02692183830242535 0.009543516130767914)
(5.049657410225064 -0.03598761978250103 0.01826616126938987)
(5.058544079783361 -0.04416773315852777 0.0001886209282568943)
(5.005251752022452 0.003093365166650658 0.00453144577195193)
(5.05821287878378 -0.02786653626570011 -0.005032355380696986)
(5.083296384512383 0.0206164183028231 0.05703281932774926)
(4.655688494976763 0.07015981370687503 0.1748015175392474)
(5.047540966952328 -0.03437754034854585 -0.01038169735980047)
(5.003339117527386 0.001020386777720566 0.005769606664893312)
(5.003284600438532 0.005503649066005704 0.005432984673461571)
(4.906221017657265 0.02408318822736821 0.01897198275029918)
(5.006670991971602 0.0028552673597332 0.003060346845964059)
(4.985900938822061 -0.02265710104474919 -0.001291723801623865)
(5.005384954484835 0.001632221661546629 0.005403200782323508)
(5.04726051872441 -0.01656972151283405 0.001803835468549936)
(5.046567051979453 -0.03105146131133878 0.01553431855939122)
(5.042902866265283 -0.02451455198122014 0.01385568934856992)
(5.048891688886678 -0.02288018971941378 0.02110006235111876)
(5.002346732407005 0.00920388190038585 0.06396138608124154)
(4.992375493974281 0.04488505463447644 0.2114458490827551)
(4.996858587273871 0.003212509983660767 0.0003743279343100156)
(5.064985174408601 -0.02378177632367534 -0.002046356818651097)
(4.933577989494116 0.2124982124238118 -0.5518504826021809)
(5.058011637925173 -0.02921820688753806 -0.009589403838483081)
(5.007467939826491 0.01134944010899191 0.02003506850890529)
(4.952887503316082 0.02390713121434307 -0.02986756545645293)
(4.965948205005409 0.04719705674480661 -0.04532699333038272)
(5.043868729128364 -0.02506420598727402 -0.001180180538912673)
(5.045453291323292 -0.02297035768090805 0.002614895354030605)
(4.992396519339598 0.01619742782925366 -0.01578575733644723)
(5.05268818638793 -0.02773710929391688 0.005236732759684028)
(4.99993571585597 0.002125639400832045 0.0007051878881201878)
(5.059370332088777 -0.06302442938844369 -0.0127969272785575)
(5.046382405196067 -0.01001579752436672 -0.001205893198337336)
(5.051046344751438 -0.03956941492253646 0.03088175230249037)
(4.945158729023387 -0.01378580487754029 -0.006459665074543956)
(5.070731957192746 -0.007665365989699483 -0.002550300266839512)
(4.986444750875799 0.0048947002274508 -0.007598192018107491)
(5.067780786244793 -0.01353089041182895 0.01974792628535684)
(4.492094706937263 -0.1000043981006482 -0.02069322232580161)
(5.004439194236634 0.001255293821464503 0.001113194208569731)
(5.025353274158139 -0.04003950376571823 0.0919456616663763)
(4.652764547603009 0.07214521701442478 0.07690385996831305)
(5.008210601168123 0.001249612567448388 0.004349370979655682)
(5.006845967822537 0.002830814543918599 0.002916304032221145)
(5.00774421643942 3.007208805755402e-05 0.006319841157351226)
(4.863948137175687 -0.1004936839087179 -0.166164331935995)
(5.001891157280944 0.0005045364337787103 -0.001968359393280532)
(5.010943727427133 0.006809664793285202 -0.01182778969637787)
(4.97900430779873 0.02348607898566554 -0.01343654777213923)
(5.000482128118271 0.0009049954772049941 -0.0008352880286199164)
(5.012101842681284 -0.003028150454235979 0.001761473120841261)
(4.998950467745094 0.08091888664782833 0.01861445514823307)
(5.04563995863761 0.03437839107079312 -0.05542850877302113)
(5.025694616397349 -0.01091090316566669 -0.06424114770633918)
(1.463439660154529 -0.08767465189948542 -0.4752288256597177)
(4.617300233533891 -0.08199087218430863 -0.1031801187223829)
(4.989012310480341 0.01567955944102906 -0.01249070160516521)
(0.06448237436432404 -0.02349089975474066 0.01262446629603825)
(0.01487197322586038 -0.04407350959555582 0.02291991840244069)
(4.064391693635652 -0.03425628393141238 0.03450271785257644)
(4.485823429731791 -0.09757097687927951 -0.3354287612118217)
(5.126836704760141 -0.1362955205701391 0.1253127961093731)
(4.345282369834623 0.2166262669885307 0.5204050380664264)
(5.183374472000321 -0.02443008938999848 -0.05449524227404452)
(5.002594702694868 -0.001379015796200625 0.03920536654185745)
(4.177621734552588 -0.6187925780412999 0.1918858880276365)
(4.977664466291094 0.003660821374539424 0.001315956852892753)
(5.046122091565751 -0.05700553794308513 -0.02400454896510974)
(4.996920334412647 0.001800499609351189 0.004267740187269799)
(5.006752010858083 0.01072884898248866 -1.208273372096617e-05)
(4.993988598868484 0.00514068710048354 -0.002066847712190616)
(4.944673171439368 -0.001449554199048926 -0.01858043695633305)
(4.967535617143206 0.004179125090502161 0.002228131409214691)
(5.001030337574247 0.004815837780613467 -0.0002341547020829688)
(5.064565742375051 -0.05467840207364728 -0.01904404786071487)
(5.017313617201085 0.008015454469230151 0.02864327043628275)
(4.933343307526374 -0.07141175243237302 -0.04019593775883294)
(4.484914062829732 -0.2175189397020518 0.2775813731551057)
(4.984073239502807 0.07725998637851415 -0.037501819226005)
(5.101653144520292 -0.01927554499822828 0.03329047708047308)
(4.972099143593497 0.01418963652453452 0.001701524628605283)
(4.866781330252707 0.1296675224431657 0.208666828039396)
(5.060660241249907 -0.05805955666841595 0.04496698274100672)
(4.417136620765667 -0.04280847913352353 -0.1131964206720347)
(2.828829031502946 0.02775861795914232 -0.1535727484658453)
(5.020009283846351 0.0009294720877152745 -0.04451192229203352)
(4.994990150958749 0.03214374684391431 -0.04541712663551641)
(5.054922015503552 -0.0653419566044309 0.01353507718257974)
(4.939019907686955 0.009631920358638772 0.1665903284927384)
(4.966105791374195 0.0814351473492434 0.08550851639218368)
(5.040263043332919 0.004874933490783221 0.02297898829310394)
(5.012130460401391 0.02565292594470193 -0.02413709443066069)
(4.988482239881361 0.09799404061950791 0.07867364653413159)
(5.062385858105886 -0.05935482255881366 0.01316789720166299)
(2.541989519158039 -0.1140428680320372 -0.004325861138040417)
(4.353373385830111 0.08181583802971457 0.115517703151215)
(3.321375993482455 -0.05594014390330165 -0.03616775018725818)
(4.976898895000677 0.05212992360574305 -0.09256340001212353)
(4.357958772665829 -0.04748700839742243 -0.07226753596370825)
(5.003554429347345 0.004506169157475922 -0.001543184862792901)
(3.674804992571436 -0.1308204941697764 0.1425307961881502)
(3.365882400953505 -0.1644407933392281 -0.1226589209152464)
(4.998108730148512 0.03094261530388448 -0.01578299400561127)
(4.851247159648241 -0.008471949542136169 1.591259358487131e-05)
(3.986661672384084 -0.1043228606629819 0.03210935073631366)
(4.997703460857297 0.007845152204068022 -0.001780196842087265)
(5.097929022608314 -0.06658057542939248 0.03353935228899435)
(4.948805745243223 -0.0728989502550873 -0.1955845886422188)
(4.998596982276098 0.1351274266434048 -0.09130077874298748)
(3.209765072450763 0.3767829564573476 0.04609654302786014)
(3.371578307545275 0.07711132148294837 -0.08254150211399267)
(1.670958110655552 -0.002013283088535313 0.5533637069939807)
(2.763722682423205 0.09839296999902447 0.2352913979122739)
(3.461640487224524 -0.04255537208749185 0.3603379448069276)
(5.07854986787056 -0.01665987695455486 -0.03414123196870785)
(4.623672812470605 -0.03617619033698876 0.02456212684283969)
(5.118830725009122 -0.03571369619105035 -0.02226322708185896)
(4.981592662827874 0.02975213390521107 -0.005279814581892323)
(4.999426571021925 0.04213165609821866 -0.08316801408609417)
(3.291720125519038 -0.2506761333213209 -0.9320398029043998)
(5.149345142426903 -0.002095879848915115 0.1468838066773136)
(5.000499648582353 0.001715656661030333 0.001176938980666857)
(5.071957566797987 -0.02260068089023022 0.172420775816377)
(3.781440367180255 0.1090460727772157 -0.3331339698047864)
(4.989725812143841 0.02036655955477319 -0.03348658750433879)
(4.940614222551329 0.2643003499357155 -0.1228708424939364)
(5.163653240846279 -0.0149699059236521 0.08862877438428741)
(4.746310854744688 0.1257576136822768 -0.2035519787494231)
(5.083971673569896 0.04248959067743016 0.04726996144364497)
(4.903476206924848 0.00292380760977658 0.002210752266326725)
(4.897757855110515 0.168732070330511 0.1067000834602435)
(5.036333472723982 0.005062194977590253 0.02674580022366656)
(4.157250463097109 -0.03912569644981186 -0.1922158755693943)
(5.033724511399454 -0.03926630840398614 -0.003038050044654488)
(5.031340982917808 -0.001797288655232218 0.0320497073877144)
(4.989903531913062 0.3569880651468989 -0.1607377928059676)
(5.025822611905206 0.01315488233323783 -0.03654289230534093)
(5.002553374810741 0.001227838595348112 0.0009207928442056614)
(5.002930273873233 0.003258135926040148 -0.0002285671601404882)
(4.988597757839919 0.02189754410335841 -0.04814521944994896)
(5.056952874233549 0.03635379979394667 -0.1626322152516727)
(4.285233543607464 0.206620776374897 0.4310527350070287)
(4.6024010336493 -0.08348932366966268 0.1248110039469402)
(5.068360602952001 -0.0689862899606713 -0.02460063836861836)
(5.051798407201202 -0.02707160853314545 -0.006457836485323169)
(5.002524019833074 -0.0001041836986250687 -0.004034882183586527)
(5.068326009466894 -0.05222320328485779 -0.0220832954585386)
(5.035440252289145 -0.1227705794796314 -0.03602788442387227)
(4.546834960587277 0.05544288097718454 -0.009674284739008877)
(5.045210114029942 -0.04502322163481186 0.01214340848986756)
(4.996376762366298 0.0494750883739702 0.006972212188409157)
(5.028864220625866 0.03047723345783996 0.05721830863524136)
(4.822829941370136 0.003284218875934425 0.006506091073353888)
(4.99099473248293 0.005233903239878549 0.002205624832969657)
(4.990385494876011 0.03401913788528751 -0.05488742374300289)
(5.001580565857775 -0.0008129946481935208 -0.001385258550861766)
(3.484790536286025 -0.6569701140398229 -0.3003649853948375)
(4.897932002174278 -0.04106504720156718 0.1297336311606646)
(5.157415446918696 0.3504206916321587 0.5636070514004203)
(5.043156829467154 -0.05961125894849245 0.02985779958742392)
(4.931150343129275 0.1058533765964003 0.01159265307036068)
(3.6440114995888 -0.01871580624297048 -0.1510186956250021)
(5.028050031242206 0.02404460914783511 -0.02033504269794505)
(5.089101704205628 0.04052547035379858 0.1309909421057689)
(4.705609243226265 -0.03742161038711771 -0.009783815453864675)
(5.004863225781071 0.002717727482334627 -0.0002924830056307829)
(4.34639085640297 0.2047322054446011 0.3974341630176123)
(5.062156022330723 -0.08486191047042461 0.02542615643063847)
(4.996776027493632 0.002394711379332263 0.002385456773872083)
(5.291639696212752 0.08544341250602357 -0.08501568524078559)
(4.751861426316652 -0.1748426272668218 0.01826548330633351)
(5.020468190766169 0.04426856632741271 0.05122166914879311)
(4.592227155199886 0.01734241239324186 0.006508802574583234)
(5.047087086801084 -0.01985425508723123 0.01101536794745298)
(5.011573284418754 0.02230413935689616 -0.02333898362746336)
(5.012257651772217 0.004354518433000043 0.005496861233565134)
(5.037942670106974 -0.0287256678248008 -0.01343989826563621)
(4.999839513545946 0.001932514654218749 -0.0004128356690635412)
(4.551952943609748 -0.2685372181458952 0.0640044284618031)
(5.010397334314667 -0.09333780101855269 -0.004466790481191751)
(5.023961528026947 -0.001906722331653652 -0.0211513953391629)
(4.403284912474258 0.0233365406615819 0.1072212957463128)
(5.03829934595266 0.02083566540371919 0.03303955749372866)
(5.029646591660073 -0.01475201621292926 -0.04342318388053656)
(5.019710958660354 0.2206523330034741 -0.07418338908519782)
(4.884016631432022 -0.06261351742083565 -0.06070760297441485)
(4.653338170358099 -0.1871037101507257 -0.09016211619174148)
(5.161877911233588 -0.05777335333831057 -0.1493898769666685)
(4.39943184191631 -0.2071899649163672 -0.1352295628885729)
(4.844941606570207 0.05679247570915132 -0.1335585601441118)
(5.096853297187118 0.01871266953351528 -0.1030722456612499)
(4.325892820688701 -0.3874317117944368 -0.1169906538695518)
(5.012853195615457 0.0480048487838426 0.02475341451647819)
(5.092207865185371 -0.03690217504136833 0.03496898629619281)
(4.283314113691 -0.1032673554489479 -0.0380989358836194)
(4.983530433423692 0.1334305233144629 0.01777302513291155)
(5.06433920645738 0.06904320522895567 0.002996173075590621)
(5.065937603766351 0.04798488039507091 0.009107652242145582)
(4.993573499212844 -0.008247903398194379 0.008882997487463157)
(5.000840638703255 -0.002500540827324302 -0.001079739682380857)
(4.902420475041563 -0.07638481746833835 0.1249328812908716)
(4.996377671802199 0.0005151306603614336 0.0006608628802365182)
(5.053280703398658 0.04024922515368392 0.0795582327699613)
(5.005774624394433 0.001134847301423262 -0.002228651181227172)
(4.928079009589049 -0.1721634664520047 -0.05674687093824768)
(4.970923584176164 0.06790380357715689 0.2920885765515067)
(2.105913173070863 -0.1486188481659055 0.02670015064220514)
(5.068960265003896 -0.01996483568097415 -0.03839606475704731)
(3.72617715780604 -0.3781391805695395 -0.09006631527912477)
(5.078619902105266 0.06727980118937987 0.05401713823235342)
(4.984825024343377 -0.05308203597926085 0.1051588271948121)
(4.073175362703088 -0.006210688287149831 0.2834697311698245)
(4.380653956023013 -0.111102510207531 -0.0479342683044261)
(4.235199435515834 -0.004055792381006441 0.02135406939452993)
(4.974473673043962 -0.02500274771479779 -0.06248292675441951)
(4.996935463583605 -0.0001292379855353963 -0.000577449734108736)
(4.997475408311939 0.02405234911620063 -0.04564988877187361)
(5.02502041609455 0.07208907750559151 0.08169600959382133)
(5.01967353190501 0.02205820787736067 0.02034199761743032)
(4.996496943333399 0.005810171339842359 0.03863232030089201)
(4.987146165388794 0.01564690697075099 0.0005834075185987105)
(5.004188929221001 0.002833447888891591 0.002407737714266459)
(5.018580308822573 0.001607067032052712 -0.04114883556840142)
(3.760142985540586 -0.01071295683639592 0.1575503737231664)
(5.000532638782775 -0.002526979425402287 -0.004755053072021878)
(5.043640251599795 -0.08504392130859889 -0.001153215403979671)
(5.033710619470112 0.01896523189777643 -0.02567065490247239)
(5.047928341232726 0.01624232790821103 0.03513471690197397)
(4.600804645852651 0.1581580151766618 0.2728104193970903)
(5.116019706206968 -0.01211330712744509 -0.02487756704686939)
(4.988674687434903 -0.03424093678775576 0.0471168953038158)
(5.032479984522763 0.01300181384255936 0.02333077570134429)
(5.044452198645538 0.04873094953477877 -0.02202086769760271)
(5.05617331802491 0.0172233318307817 0.04373191475107461)
(4.990233249251045 0.06127699936366107 -0.003417397123387229)
(5.004657350051174 -0.001006260331836418 -0.001440355336486336)
(4.99903020237029 -0.001649348463101701 -0.006078729796847657)
(4.880872831541058 0.2360284489826321 -0.09422375106118687)
(4.999587153089078 0.00674407141697156 0.008918730605301083)
(4.96339378730681 0.1144902650094393 -0.06148714889030785)
(5.002042640970709 -0.0006730044847186504 -0.0006837116777757131)
(5.027077822917143 0.05767194626181718 0.002746704297484069)
(4.234206420479322 0.04513705023628213 0.1414966548504829)
(5.092099327986308 -0.09041222807507927 0.05968812011379752)
(4.998681860405311 0.006878128529237293 -0.008506741835944097)
(5.029664425461545 -0.004096314088375962 0.004291520065517139)
(2.540252575138755 1.601549652714814 2.707160317170416)
(5.013011088422499 0.0322892248735213 0.002183132164942157)
(4.995067635931719 0.004546622377078158 -0.007488090176682245)
(5.053191852959514 -0.08980756425540228 -0.03005111500822432)
(4.979689465157305 0.007283077133649614 -0.00394655454986204)
(5.068089326005865 -0.01424803992901396 -0.03858591192903193)
(3.010601780771986 0.6479536706695344 -0.3346280370340108)
(4.974274793938741 0.1336367464847596 0.01633976060053302)
(4.987742662080667 -0.03405224754171865 -0.07757465313456893)
(4.983174297285922 0.004930478186037269 0.0008595808973448363)
(5.003901626576633 0.001879551293574766 7.022716541443018e-05)
(3.456854402784859 -0.03489086318635309 0.4240641664746324)
(3.494116419301859 -0.2917531932739729 0.3910554694428233)
(4.984111504842875 0.01110186924330956 -0.0007022476080996003)
(3.238931335166242 -0.01569202950984095 0.08839456591853465)
(5.001303643600013 0.01305698923826277 0.01503882102265984)
(5.029876684503653 -0.1793441049920715 0.04847854447829598)
(4.970955878637658 0.1381902693033435 0.1023114429954558)
(5.000728605405222 0.0009943830895483058 -0.00102555022313694)
(3.262031334501208 0.1079441371295407 -0.1193311308429364)
(4.965738884594709 0.1403567405056482 0.08458834208250293)
(3.448675126872877 -0.2751500624789509 -0.1437373772985658)
(5.045305717575751 -0.07171072818453227 0.06115532284848111)
(5.046848167484486 -0.07242875400471827 0.05752350058149752)
(4.978416044479316 -0.05139229484131039 0.061952040163858)
(4.929923427009546 0.02606291888859361 0.03869976571496935)
(3.009941439793347 0.1134817952212046 -0.04741399222071362)
(4.904264100795105 -0.09890204551263371 -0.0740919286635472)
(5.05392869393066 -0.0972807529485164 -0.01533707399031744)
(5.088285550813715 -0.1718932992192057 -0.03831755379465576)
(5.031418508814807 0.139599511884694 0.101670028672895)
(4.971311004123034 0.005239813982672305 0.01214928852428265)
(4.994154159627139 -0.003370269730659008 0.00253603609430513)
(4.303159814056427 0.02916859657207554 -0.1242927543737257)
(5.031572826553097 0.3216160914008729 0.03820723162867271)
(4.997570996370037 0.002505526647250644 0.009452812128083181)
(4.987636432372637 0.007810647532443014 -0.00166025852503262)
(4.965494355265255 0.1105686850422393 -0.01314518763473556)
(4.511182964474114 -0.034162848477376 -0.04363710065793117)
(5.026438819654977 0.007816401820910066 -0.01136011723589223)
(5.077625033872013 0.08878933690125797 0.05706171800673593)
(3.14760911199295 -0.1064503192529775 0.0547840940195695)
(4.799917572058067 -0.04195608263674149 0.06603766092459748)
(5.007453672641007 0.00323464752415236 -0.005326777996198118)
(5.06173689714919 -0.05635280327276243 -0.02947907830259127)
(5.149813955484768 -0.04311965770086722 0.08511336115201272)
(5.058903214449774 -0.06123193265453372 0.1173891791512771)
(5.029074200272136 -0.1269338885809231 -0.1566287080226231)
(4.665718379578284 -0.06938350003363866 0.3752744525867316)
(4.793663141964065 0.1974193241484283 -0.003220775458251088)
(5.006404762542372 0.02813728206772545 -0.03459323783259542)
(5.237702454167652 -0.05555109473456152 -0.01150531503202629)
(4.99718561560447 0.05182016722813576 0.02588151133073938)
(2.780291313716352 0.0580014394831685 -0.04901475580146235)
(3.13765421990633 -0.07142206704562003 -0.08486005573190501)
(4.651962755409603 -0.04387142988717221 0.04502678409954332)
(5.001311477344891 0.02229121631398453 0.02352188709737473)
(5.111227919733996 -0.01795384407510229 0.174606099511521)
(5.000014936573012 0.001364608979111846 0.003248875646956433)