/*--------------------------------*- C++ -*----------------------------------*\
| =========                 |                                                 |
| \\      /  F ield         | OpenFOAM: The Open Source CFD Toolbox           |
|  \\    /   O peration     | Version:  v1906                                 |
|   \\  /    A nd           | Web:      www.OpenFOAM.com                      |
|    \\/     M anipulation  |                                                 |
\*---------------------------------------------------------------------------*/
FoamFile
{
    version     2.0;
    format      ascii;
    class       volScalarField;
    location    "0.2";
    object      p;
}
// * * * * * * * * * * * * * * * * * * * * * * * * * * * * * * * * * * * * * //

dimensions      [0 2 -2 0 0 0 0];


internalField   nonuniform List<scalar> 
78526
(
-0.06360045817132101
-0.005891228660020284
-0.01363404050178834
0.0275924938242827
0.01023119068865215
-0.0006448254597390057
-0.5324600783899387
-0.01390523306200587
-0.05018327583538728
0.003944029721942238
-0.04505248363424096
0.1670475233775812
0.1835967817781899
0.81065673062879
0.1684391799063426
0.005405914880230724
0.02245628480752204
0.02339688222285597
-0.009984524574362146
-0.09428006903772136
-0.424853137579467
-0.6081393054511478
-0.05033345633374919
-0.003346971692309421
0.001352008932619031
-0.002983096423652172
-0.01302884562475856
0.007646311439802502
0.02244883092333066
-0.008291473320353798
-0.192782504429441
-0.008048308188439492
-0.1786496611987084
0.005351397602630134
0.01589086336834738
-0.01439566719002286
-0.2237687535364752
-0.01551062883772974
-0.03425739007951791
-0.02251985890559584
-0.1228776411029923
-0.004061743187958176
-0.03203380481930613
0.01421695951848377
0.0154421653140755
0.01597828731789922
-0.03573260200107743
0.003807403848883254
-0.004498580539004583
0.06678220839975274
0.1288629185780998
-0.0001654421752958397
-0.665118163959843
0.03574074957555946
-0.00388694050978165
-0.5672341291922846
-0.1299810950364949
-2.193512863987988
-0.07782172578353741
-0.3511432698717659
-0.02244552696758689
0.01476513303409209
-0.01120521488986402
0.006537657282908107
-0.003583838677654669
-0.005618125759701466
-0.003481253528342062
-0.08625583360502408
-0.004415072549970488
-1.210141985111145
-0.019548618057607
0.4699179562254119
-0.2324019557082363
0.3942241727640598
-0.01966756922175704
-0.229579160194948
-0.005316240514991763
-0.07223259976388963
-0.00105811156624452
0.008625621864196461
0.05264307199250196
0.01892306542627767
0.3125209038446284
-0.0909162431304955
-0.07086515250213798
0.006162966563897979
-0.2757861522859179
-1.551445941030045
0.005769600307477737
-0.02584951364143849
-0.0003695536675499713
-0.2408022511348252
-0.01466995298748414
0.01778655439917302
0.01297088802431242
-0.00320637930979065
0.01778831983004139
-0.004871316840237117
-0.1658796335548323
-0.005817885597695012
-0.1176455888287182
-0.1243661092320748
0.005849667083746398
-1.10120712546451
-0.005700721434101655
0.01453886797580427
-0.631386398807496
0.02425449978621366
0.006144816032551488
-0.3217394682027422
-0.07253880855724135
0.006692341248486355
0.01764327377907049
-0.163416098908447
-0.1410039368233903
-2.18150421913736
0.005715220980083211
0.03065270729976513
-0.1615960527208178
0.005786674749443696
-0.00494825538910789
-0.06630239590059843
1.630239948742243
0.01771847905189237
0.03411306515474542
0.022698174727628
-0.005568795630549431
0.005769975868975991
0.05375342604269066
-0.1148476042347757
-0.2437206031705706
0.02156911455901645
0.1119781839147163
-0.03069860417786874
0.0302230400002602
-0.002392598736114362
-0.6283608803201327
0.0448397556287783
0.0003723194643673031
-0.004802518548067346
-0.09908808311981297
0.01966472833625105
-0.2774103546498683
0.001772633663849882
0.01254455835105075
-0.7332449388016481
-0.07916852038076962
-0.03113519955826685
0.04294675353864519
0.03348105033131965
-0.01446809729032901
0.04603709522245655
-0.09154517108277815
-0.007690649958264004
-0.07229945555281776
-0.01042381687811276
-0.01246655282369638
0.004926812706236316
-0.06445683257957359
-0.199317997603233
0.0313054475085807
-0.1523165167473391
-0.1082539887118898
0.004843884196115878
0.007661905760252902
0.002000630439836601
0.005216892383781105
0.009294631186680261
-0.0157710835014536
0.03111125878414215
0.004621368741605961
0.03318554032790073
-0.005682819700413258
-0.2083859694879752
-0.8373716032807615
0.005599263360131468
0.002003840855471538
0.02564076317080662
0.007166251863727157
-0.003625839481964107
-0.02320866528909698
-0.1522852703584541
-0.2168326144942339
0.04156709085928951
-0.1274216565679266
-0.01527544944879039
0.04549226071725034
0.06798740191689397
-0.00583137469601715
1.932775668611289
-0.05012923538358877
-0.1519638899209452
-0.005528781176517563
3.783326133978735
-0.005814586530802938
0.05394482736571829
-0.1894454766186717
-0.2069980923833417
0.1127655505194382
0.003900257623179012
-1.210550428000138
-0.0007890720242998371
0.01477499736024728
-0.004479228757910116
0.008162087735920014
-0.006623081747592818
-0.1553674639054397
-0.3712557577164377
-1.631113737263612
0.04831360320307498
0.03565559244570514
0.03093632573849339
0.3029267940697214
-1.802257804829604
-1.561120198524953
0.07100717016564621
-0.005038318442091833
0.02467904246003605
-2.085968505541885
-0.09250913573651004
-0.5878925630066129
-1.92371255506165
0.0229132144833802
-0.002109070478020822
-0.01948754943328793
0.05830657415810356
-0.07249560291042939
-0.08269174891086715
0.03046814822210714
-0.1583387789381945
-0.06984523539803091
-0.01141847964768197
-0.00235172359964469
0.2002360128796791
-0.001624386955431043
0.02381496426314343
-0.006214464473092321
-0.005782290832855599
-0.3111548141543145
0.3433301774360665
-0.2136404213920473
-0.1399131341281418
-0.1950714663336635
-0.1165763141705439
-0.002588779490529277
-0.2348512400430045
0.08713133033815842
0.06862511493033255
-0.03763442364774612
0.05035073129411925
0.05187368618455829
-0.1070169688522866
-0.2212934727800627
-0.06056375847978901
-0.0365666061630769
-0.1480504644937784
-0.2357395048044225
-0.1961475449471149
-0.05640953780779404
0.009589751606017277
0.008887321498847238
-0.08777443015517752
0.09777116822333781
0.07253986615755251
0.02492824438702177
-0.01206536887009393
-0.2669853712897798
-0.01414874008113287
-0.2673827089788777
-0.7378252472311978
0.0918465572227289
-0.7269459948369209
-0.00326165576731702
-0.04612978675714657
0.02353194870848829
-0.003271804268780423
-0.2455400571445535
-1.877064843187184
0.009147294600201876
0.003443103580014722
0.01025495128585997
-0.004661600918238923
-0.01927298231685231
-0.3896066653226848
-0.04277166695988573
-0.3022355328723065
-0.351733111887427
-0.008687488146605126
-0.02891804159731592
-0.125180456882855
-0.004172051936268656
0.004547884626131697
-0.5785805288789652
-0.001887818915686216
-0.2370594965000605
0.07155360859734017
-0.0779390350348019
-0.5378316571852176
-0.08787032066635002
-0.8719588207008597
0.004634247445751835
-0.005259008839384242
-0.5230834193052857
0.01039546241792143
-0.1880326788380852
-0.527260183712063
-0.1788300423453123
0.005497730370307883
-0.03736712524119416
0.04480061158196381
-0.268476862336282
0.004499669348648669
0.003280594685994791
0.01594202320316798
0.01088053807059314
-0.01395084953667373
-0.1839384465185943
-0.08059060307208897
-0.05011063174280145
0.01029842887154018
-0.1287751929825704
-0.01543325777412244
0.5720563246538126
-0.3756717740904221
0.07389414945505085
-0.00367409738621261
-0.1607754738307523
-0.004104513937775368
1.158435515747076
-0.0187003291134101
-0.0004507301892275708
0.004826292445756559
0.007393878176377587
-0.1098450705236449
0.0002099713543350981
0.05699628676374877
-0.003357969281124142
1.686911777649475
-0.07976492723300606
0.006941527927702398
-0.004183407101684307
0.1543637584114244
0.02512390548789772
-0.2101908390903083
-0.02205119393778618
-0.2396060453685715
-0.3941526751324166
0.02836481380907253
-0.48559747276264
-0.01358531603274963
-0.4226475399362162
-0.03032308585496595
0.01652361652028193
-0.3165325891832836
-0.01215099908235612
-0.1070168529695064
0.6119486903893659
-0.01512177704198737
0.08774678365092813
0.005655970184539455
0.02496964106570304
-0.101096307601477
-0.1689336981657352
0.0145887886274617
0.03013507010390153
0.01031182437093736
-0.06791054160813521
0.006594625166979642
-0.02661007407604499
-0.6673227993737132
0.5380480200222403
-0.003989506444566155
-0.04509220311733018
-0.2508497462528664
-2.219488258762405
-0.02967748632053908
0.07995772249255466
-0.004897223090237444
0.06796087373576554
-0.004859063766882013
-0.8711527770591522
-0.02893361508441755
-0.3420809454069944
0.1057767212569575
-0.3438798693624844
-1.914485106881538
0.5262900573626276
0.0208091415713813
0.01565947658506124
-0.8015867767077679
-0.09398631851277192
0.1725487912008462
0.002014927492105256
0.2081603616704516
-0.005474750145857006
-0.2340802361742688
0.23587462432959
0.002030470125063886
0.5590801623220377
-0.2064145577555644
-0.02034328460252385
-0.751974723335074
0.07336822339795832
-0.06729791146232683
0.03542543657211657
-0.691685564812352
-0.5928622210000393
0.1073809315280615
-0.1876758279110162
-0.2587846444482638
-0.2135480911419963
0.08033112043130308
-2.054589628461896
0.002773386016295981
0.02138722656770484
-0.08775069654025065
-0.1789124410714346
-0.2000131252623896
0.001954470340247191
-0.1007094787384908
-0.320504434424759
-0.2703203579296735
0.002657528258010992
-0.1478873192135212
-0.5171311093278588
-2.254319523635893
-0.1250109749008357
0.01315202142248625
-1.652448177086781
-0.2292294954924028
-0.0293407373728354
0.2106068387266262
0.251740420567577
-0.03507169867691896
-0.2263796101805773
-2.067480064292138
-0.378103655037631
0.01777919644179219
-0.3502610151730016
-0.2445033682532156
-0.1596982740571542
-0.2011456284761394
0.2695498901310143
-0.2899232163297319
0.009124680880321003
0.009951633089581356
-0.5274705676780927
-0.4044833860911486
-0.1771642776668153
-2.235677484606371
-0.1914731311667879
-0.003908959466192662
-0.2091865306536299
-0.1887865443174274
-0.5047068701299156
-0.00498657880477358
0.2118459652816224
-0.7997523559169927
-0.002267887082502711
-0.02650036861609865
-0.1958234523292279
0.01838820754538217
0.8410524306284048
-0.05143185912638325
-0.3725614352059687
0.01398346084781798
-0.6333100935478929
0.02482228170907059
-0.7005798530238933
-0.5969620417767918
-0.5465886278620308
-0.5635241480489892
0.0003615184550797247
-0.04775223187651621
0.005259422906037851
-0.01263217432393102
-0.009604229540648991
-0.05047934800876521
0.01289707669984
-1.116418151459464
-0.6030610326380786
-0.3759709602934524
-0.5992746247395732
-0.004555459817322425
-0.2124835343079313
-0.3518983757790266
-0.2332042816343662
-0.2178613820821211
-0.2040059927913816
-0.2277247759414989
-0.03595122148534799
-0.3187398722116001
-0.1983753668317648
-0.1852193955646622
-0.4253734999598919
-0.4699599652517787
0.001383673367785516
0.01924843737336634
-0.2480286802459436
0.781252637501973
0.01527179310170325
-0.2082339240919513
-0.01443571537611175
-0.001364716718356164
0.02892700580884067
-0.02864572267441609
0.05848481725681533
-0.1140860275157272
-0.03278585438162709
0.006004913574167477
-0.577798130569918
-0.01688027635301072
-0.01058811625465766
-0.2197528061476591
0.0709715905378486
-0.002808752474626477
-0.01738128845144187
-0.1988365671176787
0.05575138282677064
-0.3549776773128718
0.02463346752122082
0.002530987225343538
-0.1290751803744877
-1.497596137165853
-0.1235384644995664
0.007104260143929405
-0.1190899075439671
-1.785084179188459
-0.6554464786016181
-0.6383966368634725
-0.1738832829444764
-0.01244206893973317
-0.3992056354598508
0.0476603108055743
-1.618626787627628
-0.7899037155509578
-0.6432554987139721
-0.04896037016092579
0.006785044464303374
-0.25133027000877
-0.003680185262710577
-0.1523043686850402
0.03135306073347639
0.002193146135225284
-0.4606501141572676
-0.02205053822212791
-0.1621112166230108
-0.02348599244268629
0.0165238258595114
-0.2061496138514013
-0.02609012665439491
-0.7452394189448754
-0.6107740840085158
0.01875438065601125
-0.005018147986607969
-1.305061924869905
-0.0705958036767637
0.02227452807897079
0.01961212645360443
-0.1177988256231694
0.0272128401728817
-3.029096456486017
-0.5431780923599546
0.07160017021610682
0.04317463509732858
-0.1886668194896834
-0.3702766963677098
0.07705226066099286
-1.237455179274093
-4.238327646001482
0.003507995239105989
0.02335967797284651
-2.961823584144381
-1.847984568308158
-0.4429321985309145
-0.1167584329559079
-2.83123576006999
-0.1152763090545048
-3.02816148670246
-0.001361970735332273
0.02520592787677756
0.02271029301329896
0.02180371935858008
0.02333927890438827
0.03494191851124596
0.0059588070360999
0.03562464932407493
0.08718868771364376
0.06446056662796337
0.05277870219837211
0.004208924045965042
-0.003133591575308377
0.01067250936471612
0.02646805528628058
-0.006868489466137985
-0.2206551702546807
0.02585106167300409
-0.1556728158792653
-0.06825121590738392
-0.0611466962835505
-0.004268341461102467
0.0005432655917374874
1.531445263303052e-05
0.005550076436378236
0.06561700460738581
-0.0470002783349314
-0.04950662842765905
-0.1585396886371995
0.005921569124038707
-0.160493516299198
-0.148821183583853
-0.03727751720352104
0.0002371575692920697
-0.005737957188443793
-0.01956105041734578
-0.03885580804294829
-0.0006701361509265572
-0.002754714536051377
-0.004866951504289578
0.002101154637022696
0.07985360994148334
-0.0003914735945708889
-0.08006145304799847
0.06381308821066603
0.00828841199178622
-1.934664972335108
-0.03959444650230147
-2.364582492184394
-1.719396048099095
-0.03406684237688894
0.003770367368307491
-4.088333095999752
-1.167590082272486
-0.03674359510687707
-0.0332037486113044
0.002053387568692341
-0.00490595654485036
-0.005482119775101413
0.01076227745701308
-0.02144609231047347
-1.750895497624036
0.01024014558216589
-0.0211618682759234
0.0002150877718013234
-0.004297347587402189
-0.05917432661915794
0.005266610203259812
0.003955116243420169
-0.0001866667453768988
0.003882366591541097
0.009497563033352942
-0.003756358504492062
0.1053215088543013
-0.01270621677197943
-0.01308702862683415
-0.1373350322666283
-0.1645852316307937
-0.1155868585407564
-0.01490897280775969
-0.003976201302207459
-0.06492984064846159
-0.004257248311397849
-0.004284193312380024
-0.001649207674909645
-0.1380289471188516
-0.002042716547194145
-0.3849831848486892
0.00523962876863787
-0.004602727240145398
-0.003559661882786618
-0.003754751831048808
-0.004527064748232309
-0.1615406669864909
-0.1507237398733021
-0.00631215211896595
-0.01067355947752304
-0.01085087920323704
-0.06860288256778857
-0.00304723831040449
-0.0004432917920022229
0.005599329070631909
-0.007096603032199509
-0.1404424154521873
-0.1083928978420973
-0.003952129654403218
-0.00920789680372704
-0.09778389342615772
0.06959585705383761
-0.1675214377108411
-0.02686160753816745
0.007819017263741221
-0.001479572168609011
0.0160662486345145
-0.01414034153557247
0.003208262000002801
-0.03951859611677964
0.09149599038073029
0.02689795561305448
0.008929139538299475
-0.03298395183669248
-0.04930622786304878
-0.1250906530719141
-0.004993334356411727
-0.1488509960146977
0.001775461367073631
-0.07798158220532042
-0.011488151259324
-0.7368556751219325
0.005071684216496972
-0.00570580975393129
-0.03252825844588195
0.01277996972868083
-0.003903737764084818
-0.3932751500731725
0.005721683455280782
-0.02455241266132815
-0.004816856954502397
0.1011192458546522
0.02562676340447922
-0.02520603170938132
-0.004424357096323322
-0.1692431482575215
0.009144724035245985
-0.008174579951917799
-0.2041889199275781
-0.7755569981998673
-0.0718810072202673
0.006553647237905107
0.01254227344099744
0.005145844908049756
-0.001003829994755294
0.07771251078772012
0.01210783325441888
-0.006464967436110817
-0.007000602328793085
-0.02936641002758852
0.1140691736652439
-0.006379494493953254
0.003984912837937594
-0.2426589275968755
0.004204126996996603
-0.004472045863242916
-0.04643472063109653
-0.127077353182188
-0.005343294074861015
0.003746416126310687
-0.02222604535519339
-0.1884370805366798
-0.004758565113748849
0.004350221266419672
-0.03700425506882522
-0.03010764523777183
0.03779553405989747
0.01771634806015594
-0.6416026016736651
-0.005314178835241863
-0.01647362224556878
-0.00863851777526275
-0.1596079930275313
-0.003737326228277392
-0.005968062532371637
-0.001101648195035056
-0.0108953631503717
-0.1796421406326635
0.008773511959385541
-0.1402128690078004
-0.005065354525973881
-0.01068461283112833
-0.02795562338886146
-0.02831733825452169
-0.01450616423812572
-0.005219230475172391
-0.1958546566153593
-0.02067256585941409
-0.009961980664067517
-0.3855387027627286
0.001889819964562919
0.005232732543974701
-0.004666741367323415
0.001195929808559246
-0.1868849329530978
0.006541200469885793
0.005729080807211835
-0.1037756935853314
0.001037388950866489
-0.008528824280789731
-0.0115473347569255
0.00251205466103099
-0.2314370573378961
-0.06605341844254174
0.05844849963892953
-0.2712104103831953
-0.2025981162650361
0.01445952258059599
-0.1575271032296528
-0.005527464021190251
-0.00999877949512451
-0.007788115992522849
0.004085466734965045
-0.07264494009543182
-0.2340334945448194
-0.0118362658686406
-0.005571902163044697
-0.04134694810151181
-0.118330864534698
-0.007017516321861149
-0.0003928275584269592
0.03835020943128936
0.01694291502361011
0.01420154141267945
0.008781747262958954
-0.2112483075028651
0.006240207035243877
-0.1528864973932791
-0.01198396769778154
0.0008337593824597721
0.008610332798371046
0.01291774154736814
-0.8143755601468512
0.01272206620816184
-0.000282203076420225
0.01174652692221724
-0.01466002028885694
-0.2187721590439647
-0.004272809798223678
0.01264667624757809
-0.1828264708041395
0.006186889205967576
0.02048934459053443
-0.1052036533156499
0.169814070485442
0.01089162688911211
0.01587142125388299
0.01740792717160337
0.01089782123165456
0.02812670075511414
-0.004407980998201614
-0.0009212144202760717
-0.004361084940410244
0.2256273272122664
0.01503843870598478
0.005823886513059541
-0.01015065551525178
0.03483854261369623
0.0008046007441191867
-0.000303549220752663
0.03288460110535474
-0.001216789980559809
-0.007444489864432732
-0.01522156550640252
0.003693662937766011
-0.005011778279919646
0.07530071098845675
-0.0008038682821666079
-0.01067952667620795
-0.001998839193077948
-0.007414552183082332
-0.009197505146859172
0.0007018286655649155
-0.008116823039543251
-0.001042295033611076
-0.06259107909386989
-0.001800296240218227
-0.06890054401863085
-0.0238129365524391
0.01264625972876031
-0.004130399838085666
0.01349475391426678
-0.5095356249860087
-0.008811523560308362
-0.2030502057416074
-0.219635690959549
-0.1685989134566882
0.01239346261102327
-0.00144479026005054
-0.1669123666103644
-0.1695716744774116
0.1117235657693423
-0.05843845673286208
0.1481253105655961
0.005060805509050928
0.00139738157203729
0.09858186054076928
-0.1874874192559206
-0.219564403651676
0.001471110122719255
-0.08617616677153973
0.03653804523016958
-0.05529830922369447
1.342679256453706
0.0002962624642697175
-0.2380726933803615
0.0610165300514589
0.4029540912193304
0.003406082218224597
0.3481688942796258
0.002224301555084861
-0.1981215825953848
-0.0007384622344803202
-0.2276539703134267
-0.2119178078716854
0.0003723624540159926
0.2004364451142911
0.004945299232744112
0.01853647187916919
0.001987571731337993
-0.2558616471043167
0.02883437508397343
-0.0124250803547726
-0.2606728998145638
-0.01690655473883
0.005194294464503244
0.01632855942658678
-0.1751291382845125
-0.01057543642399653
-0.01336215692894311
0.005122645793955147
-0.03272807424614877
-0.2121755893460701
0.0173013306298502
-0.01152012716433867
0.06261711048537921
0.002323907631926215
0.0002944470172504342
-0.005039856385482832
-0.2024038560816152
0.1821197396685547
-0.01207791328417064
-0.2548220704013068
-0.00423813467343763
0.01132878082629771
-0.1279727604403798
-0.1423460032512326
0.001656777341634732
0.004191399562274483
-0.3839940436087612
-0.005553653659952653
-0.6916694211168164
-0.004358069729406678
-0.01499170784451353
-0.003782651716519763
-0.06962096978665229
-0.05280769129323735
-0.1369506698938965
-0.1262962701983379
0.3388398832596681
-0.0001469289581873512
-0.03542325828520004
0.01707150175183037
-0.006716824129757756
0.02089632003069774
-0.1387048382732158
-0.008841822557922327
-0.06394991085631012
-0.0003342043411617377
-0.002628582956958977
-0.01034579635691295
-0.09812043545866928
-0.4006636612711925
-0.02938221627357166
-0.01483002833839441
0.02230405169804985
0.0128776661658168
-0.008073304426395259
-0.01596739849657902
0.03064914605050281
0.01569109209452231
0.01264323554264962
-0.09802129084766417
-0.1688536339801766
0.004069733346130609
-0.433825848896167
-0.1562877565542593
-0.2357551241129239
-0.1657888004006188
-0.7790506368449884
-0.02392941737183888
-0.001717923938604041
-0.04334999190422122
-0.06269469822066707
-0.1197930255108549
-1.037574917971685
-0.1321632316673596
-0.02107226834732952
0.009644290046766379
-0.01324212408826391
0.0006457224499582043
-0.0214760206954022
-0.5769009545614995
0.05369086413597506
0.01689723626646049
-0.006768425611127094
-0.03002788256714982
0.02972165535948536
-0.009313553039089281
-0.06729349036034148
0.1652920465498768
-0.06401461202245018
-0.1230353275076942
-0.1348519631081279
-0.1208334993639499
-0.00937061573522777
-0.1001280989722897
0.325107036290013
-0.03466623950285615
-0.01194355666652438
-0.01448287390525006
-0.008040827241273796
0.05102612699997055
-0.005431237639893258
-0.003211071896403122
-0.002213752958595397
0.0503891666326857
-0.004527353474860169
-0.1176919410738893
-0.04151767486277883
-0.01081440837407015
-0.3608248973068615
-0.01124855381849683
-0.171071416713494
-0.1663096531701306
-0.2619293175249007
0.05669542793529019
0.05659262721178918
-0.1617956701781954
-0.05465276308354034
-0.0101766765858249
-0.01189542619306483
-0.1140213053452722
0.00376471527689867
-0.1459060879942272
0.004171352008712061
0.01138311351267826
0.003482822962547878
-0.1681380881502137
-0.005452374761503316
-1.643581831377472
-0.09629497659802307
-0.07742191232126512
-0.01487577768257049
-0.7435765725896052
-0.004250142984924607
-0.1426492288694492
-0.009952276420960733
0.0743399144611637
-0.004137754110998231
-0.8024666460887161
-1.307920329723459
-0.4837888216499189
-0.07695720104301187
-0.3916017411480393
-1.652059923918489
-1.222492259620602
-0.002384723840002806
-1.678177805202893
-0.002860398521909081
-1.787552861532523
-5.423811553186762
-0.00378044043778042
-0.005621520020847213
-0.0801318852374605
-0.8979280662544948
-0.009725045789866896
-0.06314169590873225
-0.006585970765361287
0.05213154440851329
0.05103535477277711
-2.238115856731839
-2.332294755181265
0.004897874750368135
-0.01072639403114653
-0.01474409322841679
-0.00525698848195898
-0.006994188212464903
-0.07088574078151463
-0.005564927921869054
-0.02977572775875607
-0.0922385936238909
0.1969280350163658
0.006023173403807534
-0.01671194337482458
0.05220192920680946
0.007925800188211214
-2.651778178276909
-0.01189239057164547
0.03945788274781157
-4.190609833086445
0.03642714952995029
-0.1136305636661737
0.006614516741581467
-0.03677203762522421
0.3550171723844009
-1.683845448068164
-2.213017276933422
-0.04424372767572546
-0.08813601073074336
0.2612067284146883
-0.8629763763001863
0.01917428028134041
-0.03389654009290872
-0.03016960707661753
-0.07727039544171252
-0.04231859237891704
-2.264375791311553
-0.465994800510912
0.1735867000185199
-0.04936220307286515
-0.01170593420525487
-0.0209520948483565
-1.278698746248153
0.04938409228319878
-0.004643724883732465
-0.006106603885787929
0.005090518617408719
-2.690341473265031
-2.759187472525958
-0.002523191729480668
-0.6961888826825727
0.01915401096144223
-0.01168564539603078
0.02484064509649833
0.04919143215437002
-0.3937450455708469
-0.01160993417296127
-0.009412953455720968
0.02972678226941153
-0.1115900968980053
-0.001774326521138342
0.00121805886820626
-0.5132523062845932
-0.1523862319684841
-0.03072571030719079
0.02270039011536147
0.00249530354298354
0.001445825219087302
-0.03954686197316934
0.003107438762939136
-0.03255249868323862
-0.02769784822006711
-0.1341741255763941
-0.01758347530543641
-0.004608582224682388
-0.2469593966193942
-0.06206359858273849
0.01577816208054802
0.004166636538565627
-0.09422973643509383
-0.1280660676300605
0.006920277047198374
-0.005100255321033653
0.0483701858493723
0.00457002810228235
0.003216041377407457
0.01443445738045034
-0.1663207936708578
-0.03777646370890788
-0.1363455873292372
0.05849197548108204
0.01256119815373995
0.004337592456677382
0.005400210538894865
0.02107334360273122
-0.2399648930782512
0.02820021219688702
-0.4903027189840799
-0.03339119147297122
0.01982518001057135
0.003417105981967634
-0.0354648245021966
0.7939213045589508
0.00632829003612552
0.01661716818498218
-0.2622494420612958
0.006662714155099714
-0.04085014716324094
0.01575569324061179
0.0845566683004417
0.01113778741135278
0.005351989060352113
-1.914504557766889
0.02388842661278944
0.01226154685137269
0.1309497102470132
0.009987232210815508
-0.2032306396680953
0.003310315279089935
0.01930019941498189
0.004534339280378881
0.01483364404787998
0.01370453715272426
0.004455362962993417
-0.00465800646037359
0.01088936855923587
0.007350660170935593
-0.2129253901811593
0.03642442804645361
-0.003866130427330247
0.0201161149241651
0.05082499626149119
0.0001198250437506315
0.07668396080166938
0.009746394641814022
0.09120965277342732
0.00726157243913505
0.2099383740050836
0.06051790663755913
-0.03781292009394958
0.03788029640172259
0.01651577015304045
0.008020471354725991
0.03856034258905852
0.104681039968462
0.01293670299068712
0.01300365421064304
-0.04922985264935285
0.005171892231210394
0.03525641054113812
0.06134078746943655
-0.01251554199704141
0.006709690379278349
-0.3003615012002239
0.01883571377483497
-0.03815868781443231
-0.04651356268303037
0.03177302445362268
-0.005653099371138783
0.03907295373561373
-0.2199638381892966
-0.1371886040056298
0.04842381464552317
-0.01174196906715344
0.03733255014336825
0.004790541811164608
-0.005668861763905709
0.007049566478538478
0.003024374955986549
0.01505447497463717
0.006041658331567345
0.05448004200184989
0.0062019628541163
-0.03964165495190868
0.05337162895166452
-0.1322549262167622
-0.01281252175696483
-0.8614456165960792
0.02084113486383081
0.01073070066338069
0.009754587859883862
0.004967041597653167
-0.01085868880875161
-0.9387602919450321
0.009612049260655096
0.006476498858259173
-0.6952055782297891
0.007627914017039726
-0.03754022778787657
0.005964479477890877
0.008345591414376703
-0.034858030186402
0.02831185245495218
0.02625491362485205
0.01518206918583566
0.2820757630000591
-0.2068800043696272
0.004786387289831028
-0.009413210111135223
-0.02364166892082785
0.003365168244136268
-0.0238782577325848
-0.02445940195226215
0.005168237581207985
-0.0246248231117216
-0.008686169531891946
0.003328273691570491
0.08855186937234077
1.207200199488723
-0.00210618755467303
-0.204671206967198
-0.113121706538
-0.1173187862027022
0.02583650307106054
-0.01315576007677269
-0.6376299231934536
-0.03554772925508675
0.007845122081766109
-0.0325298802906395
-0.06148112988793916
-0.03601646696639134
-0.6138304853137588
-0.0125587004488152
0.004845333592253904
-0.03753566907836793
-0.01211889007022826
0.02358744985265954
-0.3309888214987324
0.1878811122406943
-0.1851155540276971
-0.01077591018883507
-0.02536169332290706
0.0576160861898249
0.005502046624502529
-0.08218403552820486
-0.002725985821721122
-0.1336775368010873
-0.01676465149242519
-0.2454839905996938
-0.3426259941317333
0.02204238897307487
0.05202838137330447
0.2618735123557243
0.004240382828144111
-0.02057286904508902
0.01244392123227734
0.01447132335552966
0.02715621614885145
-0.008145268660657467
-0.01735203055723747
0.007012009649619734
-0.04106606517226367
-0.03406091386136632
0.05708046389827988
-0.5580679924096454
-0.03875918088702265
-0.05140507461384203
0.0001382423804098032
-0.001389596208848052
-0.0306383567607147
0.005784978464341794
-0.02008012728422318
0.007421602218144743
0.008093662288445163
-0.1085371865575048
-0.004669705413992529
-0.0659360528602817
-0.01418504578598483
-0.004682906418032149
-0.01235381639342196
0.01245640600922374
-0.01192087180188492
0.007214732197408018
0.02026525119796509
0.005900904928291619
0.05461222953658557
-0.01036848277065559
-0.004800741084760508
0.003605220997401586
0.004668527624860669
0.007754471062964752
-0.4363783807272298
-0.001960629724344333
0.002060435402518263
0.006948690864530953
0.00670419303963685
0.0821696572154906
0.01702077054940366
-0.01259273963180053
0.008078020133410973
0.00361661547408865
-0.0122358959490904
0.23184200783239
-0.9057705159974596
-0.01404680786155413
0.006097087881209448
-0.01269804770200103
0.121135973034407
-0.01269199579872475
-0.2642129760096225
-0.01340557526932823
-0.01305521169619784
0.0235760177080468
-0.002201308221779582
-0.01678251369447844
-0.01634778566290179
0.02239379482682081
0.476637477072277
-0.2988936343189065
0.03692782543789929
-0.01531503057280742
-0.03275700215812222
-0.03384544271879504
-1.007904796539028
-0.02989012787865273
-0.7918303222963672
-0.1020392527467803
-0.03445387722939419
-0.01952208147049766
-0.03215026471226647
0.175200918789552
0.005685437198000878
-0.003087395622785693
0.006009233711434568
-0.001540610975689284
-0.03715051046907535
-0.01640106204669461
-0.01825405132990991
0.01072566409250771
-0.0379648082973588
-0.0250051655719153
-0.00782537913276686
-0.02618649110601405
-0.09797044126841628
-0.01913691065933055
0.01490347390452403
0.02589762122761992
0.02041294520843772
0.01253952921794778
-0.2649083289937953
0.011423985105423
-0.04046807841039014
0.03183721102037003
0.03742851201543707
0.03355117113976547
0.01621713824932905
-0.004137104023365813
-0.01084380519737686
0.004568292751868644
-0.01118345866059905
-0.07466814823339754
0.0136973722704096
0.01993761820829659
0.0281765201005482
-0.06358930540722928
-0.7658681079004721
-0.01884929166384877