/*--------------------------------*- C++ -*----------------------------------*\
| =========                 |                                                 |
| \\      /  F ield         | OpenFOAM: The Open Source CFD Toolbox           |
|  \\    /   O peration     | Version:  v1906                                 |
|   \\  /    A nd           | Web:      www.OpenFOAM.com                      |
|    \\/     M anipulation  |                                                 |
\*---------------------------------------------------------------------------*/
FoamFile
{
    version     2.0;
    format      ascii;
    class       surfaceScalarField;
    location    "0.2";
    object      phi;
}
// * * * * * * * * * * * * * * * * * * * * * * * * * * * * * * * * * * * * * //

dimensions      [0 3 -1 0 0 0 0];
oriented        oriented;


internalField   nonuniform List<scalar> 
153371
(
0.01457937435123955
-0.8031101861092574
-1.448846761498101
2.237377573260072
20.61828557408232
-4.648337394529881
-15.96983712250609
-16.5605423311605
8.219979374095514
-13.28776019631291
21.62832315337724
-0.3777815163346804
1.004878140916211
-2.771415157226423
2.144318532647777
-5.162855870988472
0.8071506628862671
52.36996290128312
-48.01425769318134
-18.28058143485984
21.92015419107949
-22.79502632641479
19.15545357019955
0.2207883543820244
-0.001719180083066854
-0.04073257676859889
-0.1783365975352853
-13.91091615575487
-12.08052671026015
25.99171587013968
-0.1098590174030286
0.4260084531999866
-0.4539948687793373
0.1378454329828782
16.79864808899008
18.25893813335481
-18.54201272290659
-16.5155734994382
-7.323138581536751
-11.02482461121358
26.12848698362827
-7.780523790834249
10.96058957103691
4.819668597291508
-15.78025816830752
1.581840903752685
2.854562687734117
-1.480903060838378
-2.955500530655972
0.6512677903496077
-1.214269424927412
0.5630016345539194
0.1178228264152358
-0.164857073856679
0.02860293333507246
0.01843131410206499
-5.078911688718408
16.72704785082688
2.823934486605958
-14.47207064871383
9.39407426098065
28.05457101060347
-20.94985139845439
-16.49879387312748
-10.18874430709853
-24.86027897874554
44.44309754682565
-15.08146592664479
-30.34641028004915
29.12966678519753
16.29820942149744
-10.51792286369379
4.556059421979727
16.44006540074121
-10.47820195900599
0.04353330270849425
-0.6466740615857623
0.8690780941742902
-0.2659373352982692
-0.1220305365862585
0.1514612937339883
-0.0007031219080891611
-0.02872763524259979
-8.937641886480353
-24.36291254617124
21.2198723467937
12.08068208586873
22.75425441464095
-22.15907302790269
0.5020229151372155
-1.097204301872652
6.967316143979132
-2.973724715668408
7.604391437140944
-11.59798286545747
9.644497723059475
0.4362778164973091
-7.434981466014213
-2.645794073538734
-8.907039345947391
7.607293481214004
-3.174920915179916
4.474666779895988
-7.543050505641133
-7.298015908567868
14.84079668845694
44.35006644681187
-10.62913806096228
-22.33883753544099
-11.38209085040737
-11.26687806072424
-5.80697034153781
17.07416048793084
0.1645429448447314
-0.48930499841845
0.3927539137021296
-0.06799186014458236
-0.09648890632574886
0.8339472834181983
-0.6939264922108958
0.5559309619967746
-0.6274886512750396
0.7654841814747489
4.851995864990576
6.941752533776455
-24.12836786904109
12.33461947027428
-14.94163915331013
23.74734521625853
-3.417979963101614
-5.387726099848546
26.58138840436122
-24.12218657457899
9.18887750030833
-11.64807933007442
0.04651282702487974
0.1448380347807556
0.3022264064074093
-0.4935772682268618
1.51296665464176
-14.62599741868236
-14.30732854470931
27.42035930875591
-2.277603465324187
12.38856212030398
7.177536803526224
-17.28849545847231
-10.10316303497604
3.661936345145431
-11.81333105071813
18.25455774055796
-1.425607343207123
-0.1342511006044027
-0.6499382396943039
2.209796683478952
-4.876087418383229
-9.48691378257713
-3.4287024903967
-17.13773121276874
14.55188524745789
-25.46238789160835
28.04823385692454
-1.497199357710743
-0.9665056367431882
20.4568868256177
-17.99318183114697
4.407420437552853
-0.01953425085734006
-19.32952534000576
21.12319068197883
13.41252015297943
-10.78836561869924
-14.87403036209388
29.44273388009401
-14.5680943766812
-14.15869524661997
-9.921021032035013
-1.582572315398744
25.66228859405591
5.335886294370401
-18.77905031137941
-5.077813576132295
18.52097759314372
-17.94685731157915
2.318944656538339
0.3114581022804788
15.31645455275079
9.164401304827233
-4.658233424860289
-10.85691282592957
6.350744945961348
-0.07186132827832223
13.58746363090326
-6.548286158652952
-0.08372299779757156
0.09345704541109712
-0.00959142562526568
-0.0001426219953604132
7.276049523197792
2.773601000080653
2.515354406803388
-12.56500493012947
-19.60230854553409
18.71618964871617
0.8861931200036797
-0.2187019629638009
-0.01737424213945986
0.4611499205680062
-0.225073715471445
-0.8197270816332191
0.3069674796557534
1.12381754182714
-0.6110579398630244
-0.234299601921705
0.1606781828845149
0.2172417578144143
-0.1436203387817218
-14.00852604037037
17.82085413722726
-2.567508280958749
-1.2448198158746
0.6054412878285758
-0.02054223254170876
-0.08953588830463953
-0.4953631669865234
-4.445438334689766
13.57897235719842
-1.526240541330965
8.276375730889015
16.64678428384784
-3.79996933275533
8.633230591559618
-9.414874051101076
0.6851545532270378
-8.327585749376293
15.13373272983105
11.09730142802759
-17.9034484085034
-21.67278287358504
-14.97538329447358
17.04585762252483
-4.708183695336248
15.79297301127064
-23.88609671390418
12.80130739797053
14.84902893886052
-11.62229496217465
-0.3791074863790923
-2.847626490306403
0.08490274300390001
-1.606060781567201
1.571661870234865
-0.0505038316842493
-17.09329470612224
-9.020527949144906
14.69965759313953
11.41416506212874
-0.0423986764394536
0.02888742889890084
9.731018670840482
-20.24621572741452
-8.193049134955055
-0.4787280941960545
-1.401755473207247
0.4501457272172614
1.430337840179667
0.2980706773475834
-0.5475060171619726
0.7625523723881893
-0.5131170326000323
-1.123392965149749
1.406874055322685
-0.2834810901816599
-8.441767669523054
32.55748626440458
-27.41302777095888
3.297309176079716
-0.4540575631592728
0.4893020848880493
0.6003666181242511
-0.6356111398749408
39.66443170251215
-16.63422098039497
0.7803982137584549
-23.81060893587424
23.52223144233827
-16.29809208019006
4.260571389853358
-11.48471075199801
-6.217426250278191
-2.195540886741894
8.849244953507434
-9.729132602209853
5.604685011961187
-6.397504799268289
10.52195238948554
-17.21309412686125
-16.27845760994246
24.55730735987106
8.93424437695079
-3.236330465299897
-15.90378440868847
0.7815151338360905
18.3585997401497
-0.06261034128436814
-8.169048990602459e-05
-0.1177966179099939
0.1804886496787633
-0.3948163645821555
14.38994962346495
-13.99513325887333
-7.678691674778308
-5.800036556502135
-7.837978114102944
21.31670634541541
-5.0940003759117
-16.72889834022039
6.428150895063874
15.39474782106911
0.1580587048131618
-0.2588269378710263
-0.4859992075208476
0.5867674405663594
-0.1187909594856414
0.108729337994467
0.007963668641889271
0.002097952845483024
13.99425993582501
19.53525121014707
-0.9025505909345344
-32.62696055503775
-10.20548795720541
3.514894458037214
-11.98715746136791
18.67775096058226
-10.15151829262117
7.738132565479347
3.934735840656483
-1.52135011351399
-0.4659861189164619
0.8086101545548312
-0.04455335830316357
-30.53907462883505
25.67001086062766
1.532522387288378
3.336541380923585
20.81417783378318
0.3740654363258503
-24.42457373540901
-17.58585054225629
-25.34652372417037
19.07909172511115
23.85328254132373
16.60510808473187
-19.01121440523718
-17.95804212135475
20.36414844186014
-14.33445338646987
15.42341345383516
19.72521776641936
-26.56096981432717
-1.126279238056669
4.11966495149866
23.56758410088571
1.780873831477923
-3.119416954449844
1.489081351113163
-0.1505382281523383
-3.483139821757481
4.909340826725574
18.2140431732589
-19.64024417822584
1.472488912731555
0.190445320167401
0.4206149844422279
-2.083549217335028
-0.939227910115772
-1.518483336857022
1.349486976677668
1.108224270294446
8.562254265345755
-8.747631489897177
12.97307164039584
-12.78769441584269
0.2094430069597646
0.04877390510829029
-0.1807345240326862
-0.07748238804481519
-11.21568855847515
2.013395489231198
24.94829410114428
-15.74600103190032
-8.059408254899287
10.61144976461965
-12.91084142892288
10.35879991920393
0.1196405085205552
0.01625580980506078
-0.007677409322568864
-0.128218909009216
-23.74875585956293
7.414279676623714
-9.021833630773292
25.35630981374682
9.290857597139278
8.778340124456843
-18.06937267789876
-0.0263065913970701
0.06888150015210105
0.0345945360884362
-0.07716944484958697
14.26836147314951
7.283033198232245
-5.881327027836118
-15.67006764351659
4.579079315235687
2.628855112189002
-10.1816591431016
-0.2153139827969003
0.3816887315361271
-0.4252545748869521
0.2588798261432487
0.4080588664873137
0.6677087163050233
-0.2606378218597046
-0.8151297609513319
1.706004143981111
2.108366112412228
-2.700097395673308
-1.114272860694249
-0.04444880729670014
0.0186570522253191
-0.04269252198517658
0.06848427705273122
9.074240717955689
-7.309049935103804
7.525666814287659
-27.40091576320412
1.95671343731311
24.24415978907047
1.200042536816742
1.10500405495317
-3.568936899666061
-1.014858749449684
3.478791594207093
1.460936814398163
6.969860253630723
1.291573053654091
-9.722370121596775
7.321817666065177
19.97907064828864
-43.18843677064444
15.88754845629136
2.83638034378394
-19.31940049098436
-3.903462841590692
-0.1214208246771561
0.1299185974097739
-0.1124249322248495
0.103927159485482
16.38490918859891
-12.80548502571325
-3.128568012006662
-0.4508561508783973
14.79158262221715
-17.66818184642654
-6.363806885046424
9.240406109305992
9.108131554532275
-23.36266980721612
14.86011130089991
-0.6055730482161061
-12.72053357133036
-10.77484061448148
-15.57515067045079
39.07052485626262
9.209135542975195
-11.83655767805395
28.13105124208057
-25.50362910700053
19.30041459902676
-8.691614492274818
-8.235756298353541
-2.373043808388982
-0.8897806205239049
1.955310248165965
-2.762710985506424
1.697181357891696
0.5825067156287561
-0.06720450699836585
0.09108575068354012
-0.6063879593163758
18.8747646363637
-18.96270310906959
-0.8049613649087777
0.8928998376212979
-20.49631070244727
9.38435455560049
11.11195614684971
4.259772388516559
10.58781153698795
4.496004329396298
-19.34358825491978
4.827704775342557
6.973469614441797
8.35982687512449
-18.93536702476108
28.59333455689159
-5.703200555925192
-3.954766976203689
-0.01357196213840064
-0.1624925809364256
0.1420830440056326
0.03398149906219116
9.452330841348147
-16.69309308181876
-1.050844025420088
8.291606265894673
-1.892336569955372
29.90056683667414
-2.918538015809541
-25.08969225090656
27.31883150033415
-27.16828636853914
-3.799484877772287
3.648939745978599
2.083697978831429
-4.633333035908312
-1.984222965482568
4.533858022596754
-15.57773638364181
-9.504621886600981
10.26569220356238
14.81666606668188
-0.1815140863910354
0.1324369669707038
-0.4169089995075356
-0.1413588362122254
-12.27621747307954
12.41752967181675
27.8618373118768
3.218699428750934
-10.75763581534478
-20.32290092528262
0.1085924911360396
-0.114466000495004
-0.2165957318577947
0.2224692412115822
0.1705060127217023
0.01352647411889188
-0.1819913973473068
-0.002041089502273822
-31.87980363946122
-0.489221356510156
33.64105782040868
-1.272032824396865
12.3127383411213
-6.314514186523716
-4.658668431203815
-1.339555723391335
37.09865388018363
-25.55091493880843
-34.52645531266291
22.97871637129488
-4.258199445716913
-22.43936453508034
2.751958252778361
23.94560572809048
0.1598366909152419
-28.50505526860876
-1.06006205812528
29.40528063582346
-16.55294190202867
13.05259260443655
-14.46534821084292
17.96569750843958
-21.59005515250769
-16.49449674677974
10.12419226381395
27.96035963547129
-20.75097848879123
-6.668958999734512
14.16592123032779
13.25401625820665
-16.11454393572432
13.55399180990598
6.850494579117876
-4.289942453311216
18.59957530258182
14.14306852649262
2.995261465625876
-35.73790529469894
13.93621235468329
0.3508731837979766
-17.23858709971517
2.951501561244998
-20.21726473281204
-6.326957387314302
28.07289783474053
-1.528675714590889
0.2103012338400427
0.3964469325066156
-0.1517732087610733
-0.4549749575950359
-22.21043681146751
15.41807286539877
9.946542241569219
-3.154178295496986
-8.098022700630944
6.991404017718918
-8.272008128574164
9.378626811501004
19.97157484041626
-25.73182990443059
12.05195095676254
-6.291695892699511
22.83134669910377
-22.0664453672482
-15.37957548039635
14.6146741485417
0.3894201986242466
6.645433068838994
-23.837715987341
16.80286271987907
6.200537245790403
-8.321876745552931
-16.82170660686085
18.94304610662429
-22.63969989664755
2.169443645665828
20.07238380679062
0.3978724441886418
-6.764816435796239
-11.49413830849672
25.64204914073515
-7.383094396441606
11.48265475223343
-20.38651828026534
9.053227586463338
-0.1493640584318707
-28.97207707797951
-17.01218419950097
16.94886969782815
29.0353915796561
-21.77883878487642
7.0719348454544
0.5978433931054679
14.10906054631724
13.88354443882519
-20.99997177218274
-20.28448842985401
14.56135596152474
-17.48207397607757
2.920851644585456
-0.08015921953832987
0.6985193198616694
-0.04619773339379289
0.4767054192037996
0.01384468795121783
-0.4443523737641175
-11.08900315062697
16.29840208680438
-9.212631726137149
4.003232789960069
13.57938356316537
-18.67471514529348
14.90706250417332
-9.811730922041207
-21.87713937048524
30.75429004537268
-24.94747317549976
16.07032250061773
23.17704692073949
7.011738830554791
-27.7015514668018
-2.48723428449263
-23.26546467067211
11.402102460789
10.94294635850889
0.9204158513744498
21.60249653187385
5.186762705769903
-2.037713040865586
-24.75154619678547
-0.4474518477875782
-2.173552694937837
3.72600859770486
-0.01634130971371629
0.1084459514055308
-0.1063203060850963
0.01421566438747789
-16.79181691392645
-3.710018290842376
12.22589508680616
8.275940117964421
1.387939262910476
-2.660024653079354
0.3823047696641015
31.03968754120509
-9.164061304460365
-0.9276153972928838
-20.94801083944582
-1.326098309639021
5.212466787917455
0.06244945502719968
-0.6360096755069957
0.3316411929287469
0.2419190275373227
-2.969906084879312
17.53140667364612
-0.02237783388933606
0.06315743315686238
0.09334205336190322
-0.1341216526399083
11.33701838565865
6.700267171290944
-18.90899523382054
0.8717096769015845
-1.438539077137163
1.918016838526168
2.194232771649942
-2.67371053300218
-17.50292086128319
-3.566787901843549
21.06981839982739
-0.04601793304678204
0.01592037622820968
0.1215964337638447
-0.09149887695003614
10.32036537482478
-4.161859208151888
6.500081113487029
-12.65858728015835
0.2749522059789404
21.66535258839039
-19.61239948838583
-2.327905305980301
-0.4840677356105244
0.06113857863361392
-0.8897152527027449
1.312644409662473
-9.831722222154946
-9.395171849174149
1.16947349183645
-10.38759065753313
9.350851671066231
-0.1327345053295743
6.166515089854561
-7.804862024902222
0.284139441151024
-0.3326521835092622
-0.07780405642083578
0.1263167987701239
-0.09903869080349523
13.08082799213954
-27.27968064958072
14.29789134825309
6.97054124598344
-16.30994306586747
-9.48870885111614
18.82811067102969
-14.69454552589365
-2.093429881810367
16.78810270445829
-17.14608838160375
26.87587383106752
-9.72995840740227
36.66753251950614
-9.098607762844578
-16.74875044947573
-10.82017430718463
-2.288652884855036
0.425720129183469
-0.02435785367208605
-0.04473918520017547
-0.1018515885341152
0.1709486274005811
0.03301573205992314
-0.1014656324178582
-0.05034105912980719
-11.31653974844598
-10.44154745846525
21.75692369575816
24.59171113033431
-10.46442091468881
-0.2437457768215248
13.54836862878748
11.33446589969408
2.622995574778492
-27.5058301032576
1.632323568454379
-5.716582561923937
2.364860685373514
1.719398308064008
0.0614661656936611
0.1194223550602863
-0.07215918276294377
-0.1474826180691493
0.007704575785083099
0.1641862544140819
-0.02440821213413477
-20.93133986719427
8.152303134407513
6.577242887636276
6.201793845185833
29.21579604267123
-20.03552214565475
18.46521087022034
-27.64548476723967
4.427604757682258
4.842840187068318
14.41780822070707
-23.68825316545917
0.1357951426079146
-0.1252868703618571
-0.002544603607409623
13.08084986556406
-16.18477665775014
-23.75035844887776
26.85428524102919
-0.1520411409735896
0.1273305980479704
0.07724019937317486
-0.05252965645264409
0.2140278445888388
-0.08977213342455921
0.0364224717182737
0.5529585130661842
-0.7025368236501001
0.1945647560832746
-0.04498644550466492
-19.97134194054601
0.001334722015146253
19.97005290761374
-23.79229427835502
23.96207356023406
5.816361915543514
-5.986141197425106
-20.99385868972911
3.666703908632257
7.165708513087532
10.16144626803412
-1.567269566553749
26.57843419378516
-10.6927251186226
-14.31843950857127
14.50506268980005
3.506922827030897
1.921662980882982
-19.93364849770498
-7.855385599646857
-12.41251377197379
2.352505485329868
17.91539388631186
-1.541945291036518
-0.9985929004135582
2.093086343696278
2.286596503281564
-2.213219591324337
-3.677425970666361
3.604049058689611
-0.1419299142959332
-17.28475797102353
2.527094646495094
14.89959323881884
5.841499903430923
-27.4131925882506
-2.277947670251754
23.84964035507203
-0.2194518969922328
-0.9253483418041669
0.9970429093371295
0.1477573294307295
0.02333606285799431
-19.99464268007462
10.46059801042438
0.7814850503225226
-15.84612053597442
4.604037475225159
35.21582837722461
-9.092935780939737
-46.46598320946099
20.34309061317795
-7.243851168009477
-4.340833669214241
32.36272705624803
-20.77804221902429
0.3997693920151646
0.002200369322173461
-0.5458997510477731
0.1439299897105779
0.06274187435006633
0.6751718575262108
-0.06447971051824732
-0.6734340213750263
0.2244791524594442
-0.01305999608826527
0.2062671471661379
-0.4176863035456927
1.322752680392111
-1.18378067445971
0.5105450920531088
-2.030858796814593
2.704094379251073
21.43654037273189
5.080633434017985
-4.453958103625049
-22.06321570308668
-23.05672808707228
14.84812647655775
6.139965768174392
2.068635842339212
0.05051094331014851
-0.3090074918090095
0.1205400579078948
0.1379564905814768
-3.603568022259678
-21.7054352377128
22.59320515931429
2.71579810066318
-0.9448632196749237
-0.6804638131405408
0.1795925340743951
1.445734498739552
0.5150283012787773
0.2473549258384738
-0.5167663860389126
-0.2456168410844861
-33.11707110820088
-1.727930865289648
8.33707826967045
26.50792370380193
-24.37986231947623
3.874657164907779
-12.61186595363579
-14.49961798120177
1.105074834923755
-5.752649121980499
0.4195965131504111
-0.1844059385930151
0.3675772118558037
-0.6027677864220308
-18.51424870057861
-8.587813006195747
13.84129832238228
13.26076338441108
-1.048761641089641
-9.920035067564626
10.96879670870083
-0.6711712067258335
-2.832461592141285
1.163084761869019
2.340548036899514
-0.2451536380635749
0.5845909316731216
0.8066188907717997
-0.5464019778893324
0.2067431996944182
-0.4669601125806717
-9.634557176755147
-20.21372636348486
9.216860149726205
-16.20818437412166
-1.053655141255258
30.44154815085271
-13.179708635475
-15.43988933534233
15.93447463335498
-0.4948989430826092
0.03021276949780431
0.2068343732355127
0.04567917035587214
-0.2827263130982905
-0.1321955886946583
0.04219990633404583
0.1109061990372482
-0.02091051668147418
0.07364421757393437
-0.1180315593423147
0.02880341188586935
0.0155839298779527
-0.5345761399978174
-0.09703160526940083
0.108160265385971
0.5234474798560362
5.395330431186728
23.76136243882161
-21.50790676778652
-7.648786102211294
-0.09295715335364814
0.5873374836635585
-0.8603103341641692
0.3659300038437607
0.05147413050505723
-28.53233917177883
25.78869633343758
2.692168707841677
0.2909287453480938
-0.6035977885759591
-2.144858603240277
2.457527646450411
-0.04081234070925673
-0.2339924039018265
0.3872500850426913
-0.1124453404379656
-4.146733439449324
-12.65360470491146
-1.648010997154654
18.44834914153544
-0.06673826239012098
-0.05222524653631794
-0.006456371277024538
0.1254198802000164
2.399804679673015
-0.3935694873717876
12.56954784809032
-14.57578304039134
24.20773123000167
-0.2546410212066832
-5.283586789073663
-18.6695034197131
15.5184367528929
-3.137106669718004
-1.416176154594245
-10.96515392858563
-15.87687374707174
-0.1656023992776533
-5.630306727234681
0.2615954380388766
-0.07570001828503858
-0.01682872194693671
0.008194474865882788
0.08433426536281532
-6.993134063002195
-3.216726730048305
10.76909507102721
-0.5592342779130302
-6.602233303197305
5.867629230837152
-0.9763453927734872
-4.918810137711853
-0.7070777727200546
16.45264605160855
-18.38752231734663
-24.62609354858873
-3.05719855637104
7.244990813231522
0.06771047103184719
0.05234715637792443
-0.0435535649563515
-0.07650406245726335
11.78087177395322
1.863192225364033
-15.06676779904575
1.422703799743025
-0.4970880430142223
0.445599810810726
0.297321541287025
-0.2458333090911426
-0.009068162051995936
-0.1032266317996092
-0.005171161001293213
0.1174659548497313
5.887019511094395
-0.2126954727725095
-25.41554274296517
-0.5535934394673188
0.6515380091458195
25.31759817328746
0.8924348834576263
-0.9461889178182927
-0.3243022320632646
0.3780562664162076
-13.11548096160208
0.2212702424423246
12.89430290814487
-14.55791060186023
15.03491549219874
-12.69913764661714
12.22213275627951
-0.05287336166452877
-0.4205288606709147
0.6680646423319854
-0.1946624200118007
-0.8055323556309838
-7.704620142949334
3.978451316123863
-2.557562092054054
2.443816889530031
-3.864706113599302
0.3875596575507047
-0.3767115069162535
-0.1327056021735359
0.1218574515275025
-18.25132649051612
17.07377172383019
-17.07566433701762
18.25321910373303
-0.1639773208099628
0.04022831228777471
0.02596111852132412
0.09778788999661905
-1.727461734074462
0.2421003813690046
1.45653519073487
0.02882616197584292
-0.03865505654562733
-0.09050342880661509
0.03300770348399772
0.09615078186237827
6.227539727046871
-11.03366608086907
-6.39631879353428
22.84911684587195
-0.02040292198053032
0.1129496643123784
-0.1422692054099928
0.04972246307417416
-19.34527249392697
-3.463121116380038
6.600209236185552
-0.3127091364503159
-0.1602555430175496
1.140673395755571
0.03123265413740315
-0.1294652561569989
0.01257840201621137
0.08565419999620928
0.1150648353287635
-0.2967971089918351
-0.1582129702614027
0.3399452439179281
-14.25445845014792
-0.3036078020249841
12.99621402254019
-24.84944473629778
25.28863986694272
-13.43540915322254
-3.368555357959564
7.965365441145536
13.0869012539252
-17.68371133712653
1.949167760895304
-0.9686009192456184
-0.2500963681263636
-0.7304704735282199
-0.4343452196204623
18.54405675264546
-18.109797658591
18.95419506964437
13.2449188116623
-21.82572654670604
-10.3733873345993
-38.07303187906428
0.06850274061117584
20.9343269647993
17.07020217365538
4.401368752170163
-30.71928730665145
-1.863777016624076
28.18169557110727
15.69591844388301
-19.43571718190292
11.03909953548954
-7.29930079746851
0.3358462879244389
-0.7808900483883877
-0.6621656519675856
0.1833970436982527
0.3212669319532955
0.1575016762971269
8.885176655523315
21.14884320744316
-27.49120087266921
-2.542818990294532
29.20812389940211
-25.17548099568912
0.3687258484581976
-1.250037936702038
-0.08075219406586771
-1.369307264893104
27.80138953299407
-13.26489515549942
3.667995286905036
-18.2044896643816
0.2155622908460369
0.3703344672356991
-1.148592535507203
0.5626957774127413
0.4802143200274288
-0.1276539443758907
0.08451395848833501
-0.4370743341439229
-0.0784887701948748
-14.35855131580132
-10.76401368168892
25.20105376770131
17.65328450011558
21.89995200534752
-22.27301710595427
-17.28021939950697
0.8254476028230033
-2.149913529130026
-0.9641869585289332
16.75286202641466
0.900524166053572
0.1587651884755798
-0.01414901112370265
-0.08776044070530878
-0.05685573665132548
-8.53711207528853
3.96575210005085
1.514161418881666
3.204694089214597
-4.771945910928634
-13.3926155100402
-2.597997415279823
18.28313309953565
-2.292520174215389
-26.79575958077222
23.42722163571468
-30.65302769034821
34.02156563540948
-0.2214636895550788
1.539442668791707
-2.105569273052911
0.7875902938001841
11.85354291317316
-5.758889151599654
21.19946193563592
-18.59127633415018
-29.62485850500065
27.01667290350931
1.843586529344855
14.08756690258583
-10.87209571308542
-5.059057718844937
0.09098564383678294
-0.05605428072885245
0.01654451437717485
-0.05147587749357543
2.797094075232823
1.382907052026577
-1.425437684941639
-2.754563442347415
-7.69540100732307
-7.459348801849679
15.15451387990653
-11.65639781557478
-5.961448454247182
-2.598671194582598
20.21651746440665
-2.396178840344046
1.031748094979339
1.105736318911364
0.2586944264386686
11.23770337451699
-13.51025822952507
13.95720387572975
-11.68464902071988
-0.5250051569470039
0.5302412267588897
0.09120785614077467
-0.09644392596758181
-20.17135326955972
11.55771635164125
5.852332800547328
2.761304117361323
0.01413243846055636
-0.2775742262212982
-0.3620223266681812
0.6254641144261772
0.01011458256322162
-0.1252157838576294
0.0322482700192107
0.08285293127166904
-4.958344657914664
20.56111247377648
3.260509926157265
-18.86327774202161
-0.1542321355049479
0.2142919721968457
-0.001322353481079337
-0.05873748321686594
-16.99960929849224
12.53817417891046
-5.137100199666412
9.598535319229944
-0.2327898032865976
0.1242832622804515
0.1638779751373106
-0.05537143413780812
-9.906351574413016
0.7875276777297094
12.21416879618101
-3.095344899505436
1.036460596104812
0.9916233702275832
-7.249606832461766
5.221522866130254
0.3482423791045164
0.06818316654026367
-0.4154255771713891
-0.0009999684787425052
2.467097275601827
-5.912714764198324
0.01658557776785951
0.5863292742473309
-0.6047899682353493
0.001875116215143511
0.1147247825996278
0.07564747314710184
-0.1508766606646375
-0.03949559509040047
-13.22958921406642
1.675767932744407
2.979940949969668
-0.9524936201642445
-3.703215262604163
-0.008275178669756965
-0.3973195878068904
0.7143664704550511
-0.3087717040056069
-17.67487950845324
29.31936849235425
-10.16850389881401
-1.475985085083724
-0.8989247845671046
-0.5232697460974177
3.153776900869842
-1.731582370262014
-0.764812710643667
0.6930749967822771
-0.6002034031930711
0.67194111703151
7.061613410672048
1.198338322428713
-7.223491137002865
-19.53223591821738
-12.22407395260001
16.90152367490692
14.85478619591287
-1.719594007002489
-0.05075827090357769
0.3231242955573167
-0.3166163646794183
0.04425034001480778
8.155826317728415
17.77592183357871
-37.3131931781834
11.38144502687702
4.976337613368
-3.324972836161494
-0.0034811789677469
-0.1271510400843736
-0.02577486644202793
0.1564070854873267
0.6764485257721069
-2.029600891369837
0.4038312380037584
0.9493211275750669
-26.03369466262874
14.37576329142319
28.41079339762193
-0.008475905841067602
0.06544456986302331
-0.09003785124706458
0.03306918722180081
0.004060540373140765
-0.1323989518065819
0.1233929836335503
0.004945427793119808
-0.04602664229370378
0.02573810191155139
0.02028854037848322
-9.164608514752727
0.3033102295897669
13.83763589854175
13.83388946616308
-1.121257213735915
4.761492835855491
-17.47412508825367
-13.88154624521918
-3.600381751986717
-0.02829007707987402
0.1551769720089957
-0.1259345068497474
-0.000952388083091443
24.20945171556171
-23.65405227298166
-3.52530552745899
-0.07304512592785664
0.0755448368688469
-0.03538473318478343
0.03288502224143705
7.99775230314548
-13.58052069958381
23.7647188194939
-18.18195042300691
-0.2407638408738716
-0.2230759595307134
0.4572511712623025
0.00658862913125987
0.7317530009687644
0.07313733751002208
-0.006469331844840543
-0.798421006642353
-0.1673866411757507
0.1069393247037178
0.04912528102686367
0.01132203544081686
0.01298507500911743
-0.04109300800157013
0.2421357775786122
-0.1814572196712379
-0.534792909792688
0.03141488256863861
0.6848352468858618
6.808449014326206
15.06165361415713
-14.13718155012491
-7.732921078361428
1.556884414053012
-7.558395106815687
0.334336096255748
-0.1525571809214992
0.09354974225911739
-0.275328657604011
0.00619525058809121
0.1663177892220916
-0.14352484844885
-0.02898819136745781
0.06308843539005192
0.03920568151864639
-0.1022941169123869
-15.79798178618004
6.971290678511838
15.45546443038346
-6.628773322710408
-0.1063973444007386
-0.004243200144072338
0.09629642411179046
0.01434412042895119
4.273500555352613
-21.77628753756031
-0.08169467215613745
-0.5226320269467645
0.3591730610386281
0.06898160397794378
-0.0450949518630449
-0.1089867745138602
0.08510012239300783
23.13564969634109
2.756855482119864
-18.85599283619706
-7.036512342262465
-0.1013221784138163
0.09845572034543111
0.002866458063285775
-1.924117385709054
-1.150281899971921
0.0442237070154031
3.030175578705333
-19.96242554571344
19.89466327309561
0.06776227262358017
-0.2087523179815927
0.05349703129009171
0.1132608344566983
0.04199445222849238
-6.833759924028284
-0.5672598570024823
-13.53032008614279
17.87985279224697
-14.7555252327143
-15.27621051252263
12.15188295302884
0.05893176753827866
0.4304980187144425
-0.0605293938800796
-0.4289003923809097
0.1069098563586172
0.03010551695372708
-0.09989323020838864
-0.03712214311216713
-0.1464198172906482
-0.4908160293714805
0.4335718487245493
0.2036639979294684
0.07743414976458229
-0.03624871238231615
0.1690685728955708
-0.2102540102820957
-0.1174629509797831
-0.227209087175735
0.4597368734801589
0.1241376295305101
-0.5797220293449803
0.4818319172524522
-0.02624751745754296
-0.3103911453922172
-0.2425310016702985
0.4144543078634281
0.1384678391896041
10.77624410899119
0.7941391223491113
-5.738131769584975
-5.832251461763381
0.0231651913199477
0.1740961169797928
19.00353993643163
-18.38796782802044
23.11417259415796
-23.7297447025683
-6.077813696560366
-12.15863443486442
1.553183154412396
16.68326497701874
0.1569179810392956
-0.08511697021703726
-0.1003958197146197
0.02859480888592429
0.2915924826272039
-0.01260850110700156
-0.03388372747075546
-0.4557691086965467
0.5328980305167039
-0.04324519435892048
-0.2508551889710697
-13.09387094104738
13.34466296874777
0.1951317484476654
-0.2222116022745033
-0.1531452443749397
0.1802250981927083