/*--------------------------------*- C++ -*----------------------------------*\
| =========                 |                                                 |
| \\      /  F ield         | OpenFOAM: The Open Source CFD Toolbox           |
|  \\    /   O peration     | Version:  v1906                                 |
|   \\  /    A nd           | Web:      www.OpenFOAM.com                      |
|    \\/     M anipulation  |                                                 |
\*---------------------------------------------------------------------------*/
FoamFile
{
    version     2.0;
    format      ascii;
    class       volScalarField;
    location    "1.8";
    object      p;
}
// * * * * * * * * * * * * * * * * * * * * * * * * * * * * * * * * * * * * * //

dimensions      [0 2 -2 0 0 0 0];


internalField   nonuniform List<scalar> 
19632
(
0.174794747983778
0.07278833467534472
0.1832215347047022
-1.051559043851856
0.1205904799821259
0.1204152904041097
-0.05750833370721758
0.04733655751424987
0.1360949485122145
0.0740784800178884
0.133083594012864
0.3157517353460286
0.1472910568469342
0.2051509531260735
0.1396900300489732
-0.006174511078916872
0.5591692542587449
-0.01019339426026337
0.06590579086709421
0.06920164799341848
0.1441605721386542
-1.236918771632121
-1.649479445357911
0.06247835148261564
0.05796078152226437
0.05773592862995661
0.06898913970249267
-1.427457103029051
0.07208663510180541
0.1573864071146696
0.05118279097744647
0.608702021551765
0.01869029195361263
-0.6647009379567201
0.3811442153139259
0.1260483735854881
0.06508701210058825
0.06484431800127677
0.06140261942488256
0.2479904914797336
0.05041224197611084
0.08840050172464489
0.07576369881723714
5.073987407113454
0.05292055754096418
0.04219382462686402
0.06360360279553227
0.09767783842203813
0.1662051761613736
1.082354036175204
0.2306970364607248
0.07988211772023426
0.04963476663507434
0.5231289385827291
0.1189763405031651
0.08124196800379727
0.8586182229086681
0.07101029925444596
0.0388053779185752
0.2745395378979797
0.05265960837806208
0.09914449215515077
-1.030377048587017
-1.108718709470805
0.0907458431848276
-1.103923677727386
-1.298929875759542
0.09057730895133975
0.2812604415417582
0.07728659895205621
0.2051635069683797
0.1382978476918882
0.03371760309115773
0.08163850208349349
0.07380383658462801
0.07493541102722373
0.04485928135895872
0.1147159859179071
1.964765875230363
0.1367710222407789
-46.30342798663098
0.5240178964048317
0.1565460307139186
0.152229897835751
0.06001400498202308
0.9566768522413871
0.05056379739759964
0.06744101080118571
0.866672920856295
0.5939245716302137
0.1445184621383735
0.06453477549062302
0.4082577598632039
0.201266716632039
0.1022021967126646
0.4759104829008546
0.1753433970632378
0.1633886165756557
0.04292920461559103
0.06896791616911885
0.4878514782309308
0.04982540782842963
0.2742726638564873
0.04733671897955604
0.1273200709359832
-0.02193033085376569
0.2216413904468631
0.1364592251171635
0.05234236575175048
0.06319612788352169
0.5716080839253308
0.06529947420851913
0.4587969982868521
-1.691413841845809
0.06636314833125062
0.4023236010174497
-1.213229072367761
-0.05745757864909393
0.2115292888736771
0.03801679708124463
0.07809226980104159
0.2380585304170924
0.1386594516558647
0.1092502742151545
-0.7728659802533878
0.01112362258912256
0.07962902670372732
0.230055824242018
0.06897159912504143
0.02538100963263588
0.1385476690161149
0.1221587018941406
0.06897100941167006
0.06537257803267715
-0.1133057083575074
0.1419390365924619
0.3450026240594242
0.6033248892095974
0.08397019297697735
0.399628877946275
-2.135163105981487
-3.931503565176436
-2.410977910333966
-1.648604847644016
-1.955280220497388
0.05426845803600677
0.07380525709700153
-11.59327396809268
0.1929268376260409
0.061253877379122
0.5130987120441842
0.6084522411958272
0.4109908744509939
0.06311784177549533
0.1283901172352243
0.3735789186420099
0.05899541404584611
0.09550961931845774
0.07150663733227755
-1.649105459524764
-3.304857619067732
-1.893557921993547
-3.476397701038129
-0.9947814179119853
0.3257351720082798
0.06908743534791888
0.09268276236520032
0.05079003221580448
-1.273161327121195
0.3833516124528524
0.05033851685698199
0.1978947598162984
0.1590736682145011
0.09337793185962272
0.08307128599917893
-0.9709170127765114
0.068291187667718
0.196742997801321
0.08025054975308508
0.07994181527870094
0.04068731051647684
0.08530653659429649
0.07454415898969637
0.04346480134953497
0.06657985893405918
0.06795533738927984
0.1348449393906801
0.04821516544609055
0.05369457185743453
0.0825413247355862
0.05681816500017955
0.1807572710219294
0.1014639274721093
0.3650486171471077
0.03753625471827753
0.1940463583527506
0.2182159075917206
-0.07660032222877405
0.4186091325226635
1.152676905659444
0.08502755004990026
0.2284029472702097
0.06423884698790826
0.465712510072847
0.1670295757570306
0.3179306924152457
0.07978936265203357
0.3371112469753647
0.04220451870733246
0.1050638316807872
0.4337671243303292
0.1084885059857448
0.06909458774344877
0.5368703062812747
0.1267040793178463
0.08582122456912576
0.4583866407747567
0.02064428435262848
0.1120731533902946
0.4828903621283507
0.1149065441290755
0.2126127164314411
0.108148118674964
0.04102059418106886
0.1474967755200721
-0.093356451690182
0.09319157270755432
0.4971261903121409
0.3072524194825442
0.1771122569499511
-0.1363850046476776
0.155987925493712
0.02064168224354096
0.1600949818664749
0.2254484063207506
0.04136956313216547
0.09068613733221811
-0.05493286741086253
0.163453425577214
0.1455865754145872
0.02391519179050449
-2.475600023437713
0.2445098182100648
-0.08975283025552218
0.1383647643699966
0.1214036118217914
0.1088716604376899
0.2398147809715747
0.0562349205965635
0.03889605466594168
0.08942672772181831
0.08223054180761226
0.04408483794489357
0.2076851595053102
0.9651850352291292
0.5381265242977287
0.04316339113295178
0.220688647436646
0.1108733010685484
1.591020169543078
0.4202952521540011
0.782424690403464
0.02765423783920112
0.1538582616877708
0.3483605152961112
0.1424994420858328
0.1587205144789251
0.5460945243525074
0.1415767189692639
0.05949467831915028
0.1567190896363412
0.04639905590757913
0.09700086698991793
0.05757919708512725
0.1029053884356979
0.08193629111426894
0.4071430954698404
0.6765837923926594
0.08344179504393084
3.568035827663952
0.04603303213285388
0.2973331897174396
0.1651522889663469
0.179558309491912
0.4788718241377006
0.564315561156656
0.8313498878042145
0.491814430503718
2.128191967509009
0.2788320824718838
0.1287090908026669
0.5757893849345754
0.1046891466647728
0.06269396481125911
0.05843271876044043
0.04915878336113895
0.06156933396859472
0.9926208908635011
0.08841726853289057
0.07859898590546455
0.1025591851999975
0.05763913522172573
0.1362571279718805
0.07624430572001982
-1.241970189546409
0.02628890590893099
0.1787868965214859
0.05995680622836948
0.08547756342169605
0.06004375594564229
-1.605774895139151
-1.71315688316714
-0.1028897828303328
0.4520071161564969
-1.054543139862661
-2.007057448560787
-1.605472998789448
0.03357801834670211
-1.520832678470611
-4.232704043357835
0.05186015886940923
0.09922346651751023
25.41555449941577
-1.15326693492004
0.1058840420718512
0.3823312139097895
-0.06473449145998914
-0.860908027239779
-2.351750551776477
-0.0008421520518634092
0.2724455785175026
0.06050605897739465
0.07527908120237579
0.5899849168089661
0.05272229949588918
0.3702421132765754
0.1360008797132381
-3.193444627527144
0.1083893474033816
-4.677446223573745
0.2775567357236821
-1.703950503021024
-1.912710221160235
0.2771200775006944
-0.9776814153018438
0.2094285494562848
-0.129099356694391
0.2160710955410335
-3.91656104193852
-1.248765784303527
0.9331159461540236
0.1021429340519094
0.6390958461357026
-1.044814753016679
0.1312942269648908
0.06179104362542243
0.05116395114914574
0.09317200671132561
0.153835487547067
0.1202539776025979
0.1861320286173302
0.0408205434964368
0.09112388461776949
0.3226488891606815
0.2252419511677585
-1.640460179305679
0.3713187674656815
0.1570834568722148
0.05200790481592474
-1.975483095691973
0.1879542454726593
0.1146903277782346
0.6240363752068553
0.291491108196795
0.2861714111453237
0.2592249259154504
-1.030670513246807
0.05788568150536147
0.04760609991967742
0.2857181556393103
0.3490910966805871
0.1354775311531429
0.5255841951243102
0.07940775410496428
0.1564424792307021
0.1298184071623952
0.06543630992940572
0.5547537133237472
0.1462607414765335
0.1355338805870086
0.1284633943075206
0.3220272320585728
0.2755391466736715
0.1152018843257205
0.1975255440105662
0.2021605534841159
0.2071618361119814
0.2056198460287509
0.04035373210133134
0.1350123404994379
0.4585920047551068
0.3870014888757085
0.5112428741802343
0.4430398316360304
0.1775795754012793
0.1745733067618045
0.1437455115831507
0.3154635744839763
19.33755536997342
0.0759203203654932
0.1251788446862746
0.1862207334506913
0.1748467861342181
0.2434213597821181
0.3011900591720757
0.5447773289858767
0.4324768529510218
0.3241196568028847
0.5708185960613749
0.9533696757491923
0.3536004491368168
0.2194246934487529
0.07246032738971819
3.477109954101833
0.1312478448778225
0.07859253086943586
0.1297856971402969
0.1015409044485831
0.0520142186288458
0.007845205847436486
0.1348107208355853
0.1294288688035368
0.1297198672211589
0.1205966830949442
0.1451701558694017
0.158708555143317
0.1306479960041896
0.1616932963591342
0.163691250913827
0.1483895083722855
0.4879338804436693
0.9564485999940595
0.4400228819651339
0.5396819908835562
0.2284486148772472
0.5122297642719369
0.0494530173094631
0.6435481159712351
0.1821386945804757
0.1968119821996545
0.5853318517158467
0.268514523063918
0.1203384975992276
0.3190386879125168
0.2146421120671073
0.3266998592996904
0.05256021509753715
0.2478837860603919
0.2617639445600753
0.2554238344060937
0.7342870407026314
0.1899559450013365
0.3010393411020388
0.3025823604520838
0.21985376239879
0.1755289063641353
0.1672137876666941
0.2260396387291591
0.03879843654939216
0.08349698768924442
0.07226514822476462
0.2773852739848092
0.2615459302033465
0.1280166542248187
0.1062820493200558
0.4377184196700284
-0.5390581006149028
0.08270089954157187
0.135981928495029
0.3397267842551156
0.2594724752953621
1.663803134021364
0.06374413461056509
0.6944362859430587
0.5997831708084961
-0.5791606834443775
0.4463939347561766
0.2725652349563809
0.09150266930062857
0.4048941005117024
0.1018569599260892
0.3862073392614851
0.2585438399111175
0.4555965806250594
0.4918089259750427
0.1728256036605584
0.07584649466961534
0.2436413196288702
0.8771795057181858
87.12755250988987
0.4361295951005654
0.493888645800076
0.1597437161541962
0.1049957561590463
0.4044090578973194
0.489281613074763
0.5578011936635183
0.4385434516508287
0.5305858436947815
0.4161169605713828
0.4233323577643224
-0.3213592157608387
0.421697465418138
-0.09391560610135505
0.1840794731428695
0.1192538927578429
0.07993962810874143
-0.03054666030639816
0.8936339350286598
0.1464700202965384
0.04285919153964616
0.229166337680725
0.2214644720307282
-0.7518822458214156
0.7094971729846804
0.8096081181082142
0.367080747558467
0.6869550882821844
0.1430003268631237
0.2241151941547232
0.2969446182043958
0.1367853248952823
0.1963451841331612
0.1594586188580915
0.2654471560191664
0.4499389387440959
0.2450273455797547
0.6486907271950265
0.64920130595376
-0.06238608844441645
0.119832231024386
0.1502245113438926
0.1594201910864261
0.1589770329133141
0.3597958368056962
0.2912744939753698
0.2161301623252775
0.1101330769148956
0.1149153462516627
0.2671314291696502
0.6763912197933664
0.09072399711850475
0.07024433296579725
0.06691926944737007
0.4916438783815534
-1.010207244236845
0.4023781311450655
0.0663709156328284
0.2080971751219011
0.08230534896120942
-0.4709697083964575
0.1832766467694736
0.179706117497253
0.3538504109342374
0.2501923279945423
-1.145383177504165
-0.7317398547786024
0.107768580696955
0.08379504270873502
0.0838448443874068
-0.6614887480872947
0.06521520758082658
0.4497529904286539
0.2354212591816425
0.06992080878316026
0.2361481171125106
-1.048365838570686
0.1925695620174465
-2.151173439486812
0.06373612599815702
0.2436548176298686
0.1672818540959355
0.1148299416660482
0.1622982494019328
0.2651420052544699
0.04444430180762456
0.1596125730497449
0.334104148231441
0.1567022806035119
0.2630943006087905
0.0418736188128466
0.1327611346894942
0.2202029115003654
0.1164885144687482
0.07995818592906255
0.6478349369527455
0.1665717764940343
0.1053201659245529
0.1033939144098188
0.3530551539535018
0.2114804052056587
0.1482077508747992
0.06788976528655098
0.3796894559963844
0.3155979081508836
0.1240160131053784
0.1933968743140293
0.2284799754413114
0.2732453186254402
0.3547587271715739
0.1315749974961749
0.1332951280267775
0.1262587326933682
0.4564974931895825
0.1191606364774094
-0.2893266085411552
0.1140566577998332
0.1945575335549076
-0.5559088919699247
0.1049387216996043
0.08470376347846247
0.1179383226949746
0.1181492830058003
0.09869073987317742
0.09639598788859695
0.3250240369680668
0.1292972215175554
0.1098537574488556
0.08624967189973173
0.09258000686436182
0.1156723278468158
0.07292428089696183
0.3511114956593733
0.07984223557553723
0.114469554657154
0.1276105680342745
0.09616021802264768
0.06915274798176956
0.0325819312645081
0.03640742221186045
0.09635975865341544
0.1274338989917985
0.4162664270713818
0.1312802167271797
-0.0729859604497423
0.8133941863595814
0.08599117518661148
0.2739715596075372
0.1796011860767394
0.0947200394205311
0.2160204727069932
0.09462415188593068
0.06266112209187248
0.06542742699919223
0.09775679791237951
0.237382188429311
0.06634248936627397
0.07651089439915421
0.1377642123136009
0.06912210455151913
-0.315028864535477
1.166135867496049
0.05169676017307284
0.2011709375442287
0.2825006190864606
0.06871446303427391
-0.3535597461226827
0.1244692476698204
0.0394120360713965
0.1167735002937089
0.3308429732787017
0.07507424653353104
0.1861219160655278
0.2337459830596019
0.3481680702481658
-0.3799026660052571
-0.04190847804757167
0.3080218655566149
0.2323405230900581
0.1937168194190592
0.192764832848523
0.07909117421833396
0.2906485306582824
0.09232124460521945
0.2072349563210885
0.09678245883000486
0.2396391859443888
0.2177226217057389
0.08524747423098486
-0.5347453683110688
0.07903144922258905
0.1094481737188565
0.08414195943145869
0.08009295285489539
0.219981885177446
0.1093731820672942
-1.036000362075179
0.1949638657091146
0.2048592773743644
0.1428375614947766
0.2915025548771551
0.2964201722013829
-0.02475103422769879
-0.1397706506402463
0.7609458686517803
0.1123084229761356
0.2309787727674252
0.1923690658733839
0.1976360497502548
0.30317130763704
0.05526608430779519
0.2536879045247261
0.2176807030610361
0.0456260451707698
0.09037126582867439
0.05053649915424767
0.1433269168551315
0.2367777985007381
0.1869280833791205
0.601460037527865
0.1919684800962702
0.3182943823100003
0.1803520163448177
0.6342417584921339
0.2461181213025527
0.1822370057375227
0.09433162198973773
0.2086966896573267
0.4414323347814489
0.2829059759354348
0.5136680176994195
0.4298925126817794
-0.4535338706342806
0.4405211347049677
0.5165584367941017
-0.3032271370264935
-0.7274930668132848
0.6344472368872685
0.3452002317144703
0.2948139730907171
0.3359746142134046
0.2269805226939208
0.4857752655906233
-0.6005244405930185
0.5277794697467705
-0.2289843184659213
1.705857361792245
0.5593160477883059
0.438044728643885
0.1758694393616413
1.405886300363753
0.4220818091042218
-0.7045746705759645
5.960287429241939
0.2021831543068384
-1.126356959462444
1.123977327437739
0.06771774059925303
0.07522170151339846
0.4978953972799033
0.08191528901166835
0.07473954174229844
0.08083159367412295
0.07362932958462957
0.06419132205080656
0.1619039324047379
-0.08520958910694978
0.06607778221484797
0.0801569515145588
0.08133812030548464
0.08910690718115984
0.06198614516155662
0.2855483936778364
0.2423099112187725
0.3531779139491794
0.0662183491975788
0.06660129787507481
0.08131137117431142
0.07819666800310855
0.08101036618513061
0.2994116885379819
0.07380815324673609
0.2056010639348526
0.6787605196330819
0.06302999430380485
0.03555142671095445
0.3458130537156928
0.1389866630434916
0.205846658043625
0.07365669223017074
0.06900035736787
0.1528514602531247
-1.959717527057228
0.2794020815174475
0.2409081306701195
0.5330363250232959
0.02265233217648245
0.1829777403944949
0.160963258947133
0.05364531304079975
0.192251711550165
0.2125676514359753
0.06274076107146441
0.3699184641238038
0.368161792367358
0.04282975299692147
0.08322296753297061
0.3396673656687103
0.381046145836523
0.2810633640766484
0.09050887383719626
0.297015057394288
0.1394641454607728
0.7809956972280105
0.1944341248937405
0.1284377468295508
0.2253984675824779
-0.7469358093609482
0.1757677762878243
0.2300209456335962
0.05939015073384234
0.2835313192711261
0.1876224612773044
0.2215020982337561
0.2370298995318866
0.2157229130981019
0.2224891829775298
0.2514010840746414
-0.4994288805471405
0.2537968387324768
0.1509510083909907
0.192692710158452
-0.01749638915553054
0.9662741172239353
0.1439053215614695
0.1575959083363164
0.3093367249985035
-1.940482793603216
-0.5460499841265238
0.405885772005143
0.1483847474431114
-0.3103478732171291
0.4826425694085181
0.3652797466327424
0.2408314678691597
0.1248454591470736
0.5972466239595067
0.916043086661488
0.1485617260439057
0.1249400172242529
0.1741282963933437
0.1583297798834458
0.2955708341346739
0.2793552874084412
0.3425512638888112
0.2154373250207603
0.3031142240345819
0.2708970479273593
0.08671087033682588
0.4789187592930207
0.07607900015860145
0.2737687692517963
0.2398629997834165
0.2754305822576814
0.2450405726467549
0.3308024744394343
0.3182311875743771
0.2578081294707494
0.2293956783529783
0.2002164977219602
0.1951377296120811
0.1895218665098803
0.3492820956393168
0.1857697132102175
0.2499664942101602
0.2858839993594588
0.07883198777257493
0.2297313418013315
-1.694923149462626
1.204386488189791
1.086596291379049
0.2069016604510731
1.279702895380492
1.577396864803152
1.441808994565561
1.681790783625861
2.157439319564616
0.218374944621701
0.3539550349874824
0.1935681662993697
0.2416454784381652
0.04047282944052078
0.05408834240294515
0.6267962438969245
0.09149372121381906
0.3640245290144516
0.1697752901941224
0.2487307864102409
0.5860918869904104
0.1276332066779347
0.1631301590893454
0.2751734452597719
0.1803358239586646
0.07497515435298986
0.5748686862310587
0.1005701234017783
0.03794344310322447
0.2696437134601982
0.0818256042474023
0.1220727162127709
0.1171888590312559
0.1069871328868561
0.2176434488580141
0.09931139249739102
-0.5503798099171306
0.1448714263882911
0.1199898556565352
0.3707303133216522
0.05961214592339169
0.04416740767855493
0.1366323485032267
0.135189927475824
0.1386526361654415
0.4362536867693745
0.3485969514129044
0.1737902812619714
0.1335820332988275
0.1744070126793383
0.2664529919049237
0.2361508885337931
0.05789096602149527
0.07759519896001071
0.06726599207798789
0.6468613076394572
0.06691817572478075
0.1679423822710764
0.07465927922606369
0.07146676676697562
0.07613651776394821
-0.4583308646108913
0.1408354697669698
0.6368939212364705
-1.066009245151537
0.328047732248348
0.4718652516998882
0.4363396934491536
0.4089769137658088
0.468445451198177
0.4829023609161809
0.2271538426488018
0.2662440943173869
0.3533183598565545
0.4619017178288849
1.523985953242835
0.05966350562113787
0.6501982774209156
0.2507621065771743
-0.1219322952341188
0.3878616869379905
0.4156370340466398
0.3245603849578925
0.3464226519589907
0.2372357134846082
0.1866098224017939
0.2033365057114362
0.07338931448310863
0.2625029593310353
0.2682519317792514
0.06241889296102416
0.06543701109004504
-0.3501413848079366
0.1544940050044293
0.2517260930645467
0.174906026083079
0.06891645948631644
-1.476321720518989
0.3159883175095589
0.1482587614029134
1.993223333690455
0.1506147362246269
0.1394690966716225
0.1466683006630942
0.1555258027585069
0.07513554085846982
0.1521016399179689
0.0946440175711008
0.1551306009737607
0.1944435498309617
1.225983269056744
-0.4439424927025313
0.0795744737561265
0.2312965387270189
0.2694526422891466
0.1066621470063565
-0.7323001335216256
-0.1029050459579574
0.2164204446909033
0.1734552063992544
0.1725540331457018
0.1504933289159105
0.2508814305271378
0.1852763823935281
0.1955360469115988
0.1892747334002614
0.2037338941197947
0.1613184958933993
0.256576046488135
0.1752000179688898
0.09269898695025812
0.1384820801533666
0.199742138809937
0.1755971600900094
0.1838132526114123
0.3319339697246969
0.2327392400122741
0.2432352271774527
0.3118769813436685
0.09988172654645205
-0.4108946639577248
-0.5629912319712032
5.376934593837079
-0.1038470609670887
-1.018340761536389
0.1520073238169076
0.1764703305285468
8.027877854396271
0.2745088980929523
0.2486412268358013
0.142392399377052
0.3591397234414305
0.2440316122182312
-0.1616140399800245
0.3061026754639817
0.07903212525798599
0.003807043717098845
0.1318239052096331
0.3288078204654399
0.2792924374684764
0.08253561169419354
-0.07309041405201369
0.2224760792628159
0.195009257589297
0.252045790453448
0.3333244963805678
0.5006638434756314
0.128512283730418
0.2228270859869406
0.4089714569314119
0.1350699377332912
-0.04798874551211584
0.1637654043648362
-0.5843523052532913
0.1063239866874533
0.09036676349214605
0.2402064899152535
0.531756617163343
0.05428843743252886
0.2199959991415533
0.1597160646212112
-0.05723335683667586
-0.1037453304451441
0.2305872873368391
0.1746882872079989
-0.06532419360695878
0.3468494006475001
0.2111830609897762
0.3403819075830655
0.06729979263636905
0.07365611950271582
0.07471545189488195
0.07745853703906151
0.06879133310528437
0.1796842259417372
0.2854253705465296
-0.4137669003500399
0.2865042482356772
0.427270038124537
0.5766805134332463
0.3891298849704535
0.2900698361731563
0.4156194870955721
0.2617071949679545
0.2869236531991004
0.08296995358073068
0.1363360207813092
0.1317824536557792
0.2077822564481354
0.3070835986828186
0.2271176172833429
0.1198541234803854
0.1340485711209932
0.3027044312417225
0.9320738006220096
-2.384804295614903
0.1196145269773288
0.3964554352319348
0.2282926516708955
0.2138594290067579
0.187835337857104
0.07754404125478906
0.1416580603432065
0.06531355982649507
4.636748575806625
0.4152126425306394
0.1242635907038631
0.2984725596224463
0.2560156818658203
0.1336374680069426
0.1761443155381371
0.1771866218228109
0.245396396472477
0.2208612702282471
0.2532492931330892
0.2000241825217701
0.1307582823573903
0.1765926151808303
0.2537528971157956
0.3370309331893013
0.265330210943194
0.2398665226736958
0.1258119117734836
0.7343214570206763
0.1798384489336864
0.1606510850369212
0.3842060747169585
0.2462991252824996
0.1828875864476918
-0.06705307344777786
0.2403181491258938
0.1710728190603065
0.1923172598009872
0.07777803223036388
0.009993495780317118
0.1863815377279718
-0.07006599659015789
0.1161076141454044
0.05377247491024801
-0.06161803762332047
0.6170800309358357
0.559392233066219
0.6379912903233184
0.4922306277555668
0.4369752948819526
0.5069590292316292
0.4955924139848197
0.5202623369237934
0.3043694490848228
0.5455417270555379
-1.178435830961307
0.3308377237441114
-0.330510152627461
0.344178972165222
-0.3447308044438692
0.3188119390323303
-0.1451520370493029
0.1963782364232742
0.1994710763172001
0.1865049253928493
-0.8611263718195197
0.184343953962598
0.1693721814476225
0.2444559379207605
0.2436807342551999
0.2350248034167255
0.2177191513661277
0.1343752464609694
0.150253812087229
0.1681463011119695
0.1701348657667587
0.1794997998053428
0.3064315393794322
-1.403692916345368
0.3140434281738084
0.162186404847588
0.139840669745029
1.305302545336026
1.205349700366828
-1.992533489983061
0.2405430496849544
0.006135940079901655
0.06671019899210558
2.077121494389672
0.6711367749485309
0.520967655617998
0.4243643558610211
0.7289382135002012
0.8114533875203399
0.1879934707255316
0.7141451729506758
0.6222598918290395
0.866673396438298
0.1842272553376411
0.4600419850895596
0.008987258016056989
0.5101244946756208
0.2524422918002125
0.4045150049343401
0.4703012895780458
0.05716340907828858
0.5043201814166516
0.06757039383458087
0.377163806416787
0.1845634789530008
0.05466383579954467
-0.2302655867106871
0.2849775094509592
0.307259579133173
0.1131513439230165
0.3586967308523619
0.2431124709076679
0.2377008205416931
0.199067856813363
0.4595583375156505
0.2127920565073213
0.3417362177907165
0.179655637002282
0.420697622645861
0.3922956118146956
0.3061325780445787
0.2122212441136985
0.344361719460523
0.5031309335194447
0.2602505251620473
0.348392549010254
0.1786538797667353
0.2541956085556374
-0.2732229987036598
0.2095680692415097
2.876654887334535
0.2003757132451636
0.2709693280457405
0.7603407815483761
0.1718883204731457
0.05780743348594595
0.1852323202284105
0.1242286571025333
0.03820199286558206
0.3259112553795853
-0.1422170026042973
-0.3961733590889417
0.2672110440912899
-0.5427244350073264
0.2533736000023949
0.4563991255497427
-0.383558704094718
0.4034087141995187
0.1662953017808642
0.2720182495550466
0.1881312082354846
0.1824462083064375
0.1493751798413124
0.2654329312037211
0.6813843158003374
0.3411121862308921
0.05269369431088444
2.289500109208133
0.2523846248901362
0.1405567571173608
0.3330955732847075
0.2238733633939883
0.4051814834047578
0.2569889183308923
0.2767324146953138
0.3785034030229064
0.2895198290025529
0.2448752318660431
0.2103910895333459
0.381332747863912
0.11958697411491
0.7905006343107878
0.05428540487065507
0.2612003984307429
0.02467608091804575
-0.04870015103721641
-0.05467455545153906
-0.1656393760469869
0.2060039149397729
-0.3534358705251016
-0.2619695516356299
0.3731857328025783
0.3082800321732087
0.289581768681655
-0.1175674870445266
0.1594438700224149
-0.1434631402417041
-1.48052725448485
-0.5587376640385762
0.2986128299264923
0.1149549480186448
0.3139138475861751
0.2163692516215471
0.9054045203540165
0.1402599266413621
-0.08984078523471022
0.1179291390279178
0.2718753020759148
-0.2532613576337515
0.2797573215531973
0.1054601092259775
-0.7881721080827047
0.1105307920905878
0.08382933498946969
0.3903198246342213
0.2154849335284909
0.1469889037366746
0.2147778282631233
0.09905453561784586
0.2579046636134081
0.4555235951508257
0.1414096498027917
0.2567128296047888
0.2809467359940349
0.1856874274780483
0.7378968109438244
-0.4852824090786298
0.4606281209966465
0.4408946465293693
0.534995333725468
0.2731032904031621
0.2400528726499724
0.7961607303876563
0.4071046207698404
-0.2846802239092757
0.2776819587502983
0.6336705677546893
-0.2515183025180233
0.1208016379130402
0.3959510076387543
0.22828858847409
0.09843183723572892
0.2344403986734979
0.100910974387709
0.4203552714487621
0.2420157728749743
0.1359263113882304
0.1270600425336654
0.36488243105568
0.118138838149114
0.1259973886707796
0.2424741919456402
0.3002283502087067
0.01048791957565526
-0.3736010990516123
0.2742074574599451
0.04805406281668573
0.1865278300502643
0.2076072927133433
0.2196320157327488
0.2478983978843839
0.1444405117228467
0.1760288389738296
0.1618618574031393
0.1714675444105037
-0.0599201361689398
0.8646300636286687
-1.063502123418453
-0.1329591889380543
-0.438714549907227
0.2179201434903334
0.3237820900469948
0.2349167100602559
0.1347501677844187
-0.2112165558093589
0.2967756899589344
0.1874850934769318
0.0795735814895685
0.2261222354058819
-0.4570378069731301
0.275523439126458
0.2494460445110532
-0.2608201924297308
-0.6240844852928478
1.069495096748712
0.5936006394664778
0.1018054148582852
0.5828338859485735
-0.1505772196111279
0.2138429782161785
-0.3208160473044787
-0.01284689492775562
-0.2512356940616627
-0.2325884965274767
-0.1495841587754925
0.1533869449507506
0.2650058644834729
0.1041160428851783
0.2407174711977916
0.266660170210758
0.1135039067725557
0.06705972434373703
0.07511889946433542
0.2881318939836358
0.04813480397645803
0.1421620184835795
0.2178216198294741
0.1902618030444606
0.1330341522385836
0.02167570070210892
0.1673366805700186
0.111837895290529
0.1382176273171102
0.3080340591773553
0.001868392167670139
0.4684211659711037
0.2608409702083093
0.1036321786330257
0.169490797638683
0.2152341858036528
0.1031414316601871
0.2870527804029472
0.3970138922852068
-0.2057466299356312
0.2161526942665223
0.2076182702088388
0.1860404039722055
0.232587240718864
0.2977682328514715
0.1982260475521869
0.1709847954945365
0.2215678802781855
0.2201128781514462
0.2366703880748691
0.1993852676741397
1.567381335540073
-0.5881632524313652
0.07837074934232904
-0.1667977867400808
0.1578648645207729
0.208345948687568
0.1811400291810104
0.2092346567181093
-0.991005060298639
0.1779097751951947
-0.1412172362854862
-0.07009585043911172
0.7912070923824513
0.174234393552851
0.218267204829655
0.0453670149036773
0.1878364611500203
-0.9351446662352914
-0.208171590913478
0.1555619071451386
0.1538014226099805
0.1465132025399695
0.2785403176511997
-0.09066150693864199
0.06047844171810463
0.7667302956370561
0.3135232967398237
-0.1587010680556487
-0.8321824274986208
-0.1793430535815992
0.08697469607105811
0.1405987103088001
0.05953550589657255
0.2097138259587152
0.004067452555072807
0.2277608100387304
-0.2512162341813244
0.1845148362665847
0.2299501041702315
0.2236243631041633
-0.1582967308179724
-0.7124702146153253
0.1974621546901791
-0.6687269592132671
-0.1153017042455845
-0.0503870129218557
0.09406414700838603
0.1777408378088638
-1.774984917720954
0.1057753896083922
0.322706534366401
0.2949180723084858
-5.145649675138235
1.185138799115657
0.2476696819577076
0.6169368857072161
0.2117571212282497
0.1790619071034425
0.3034236607945388
0.1422080436503573
0.2295857529897122
-0.06371183298606058
0.3810027459652087
0.2920051747441567
0.266293703888825
0.2793704284183838
0.2288788218348904
0.3229816613825837
-1.706497663484924
0.3219914940538398
0.266261293167625
0.208903696563622
0.1825213394670382
0.1992269594130889
0.1528326883086728
0.2578811729117548
0.2602795784659433
-0.1329869566511902
0.3696720395557807
0.3504884845787334
0.3254291763764208
0.1608065029065222
0.2401994902154223
0.001484714106667306
0.4194458969137791
0.1671044340596665
0.3427940006375036
-1.025583161208344
0.2921985323847057
0.274497809079891
0.09174477488799168
0.08007500943662312
0.0923247001207456
0.2555919366771945
-0.01965193344244713