/*--------------------------------*- C++ -*----------------------------------*\
| =========                 |                                                 |
| \\      /  F ield         | OpenFOAM: The Open Source CFD Toolbox           |
|  \\    /   O peration     | Version:  v1906                                 |
|   \\  /    A nd           | Web:      www.OpenFOAM.com                      |
|    \\/     M anipulation  |                                                 |
\*---------------------------------------------------------------------------*/
FoamFile
{
    version     2.0;
    format      ascii;
    class       surfaceScalarField;
    location    "1.8";
    object      phi;
}
// * * * * * * * * * * * * * * * * * * * * * * * * * * * * * * * * * * * * * //

dimensions      [0 3 -1 0 0 0 0];
oriented        oriented;


internalField   nonuniform List<scalar> 
37377
(
0.01941984277306213
-0.8108727871647775
-1.450279345361436
2.241732289906238
20.62197191681893
-4.654435283128675
-15.96907444948646
-16.569412794324
8.231789708653643
-13.28431865654743
21.62194174221299
0.2272082540106611
-0.006599109511885532
-0.04269385671169668
-0.1779152879133662
-13.89127419635965
-12.07308414559828
25.96164173679021
-15.08321344683589
-30.33105669694046
29.13769470032002
16.27657544347548
-8.647774282163308
-25.35067162214467
22.80041944739346
11.19802645712683
22.74371882762169
-22.16585906927039
0.5032665830722287
-1.081126341372861
-11.26595942823592
-5.81093849268782
17.07103245100607
0.1616245798459806
-0.4907578875648927
0.3961049041387251
-0.06697159686857791
-0.6998820178001692
0.5595561036517139
-0.6273147385479738
0.7676406523831625
26.64125880159588
-24.27235034806661
9.202322048573048
-11.57123050180877
1.508773752252428
-14.63419726369178
-14.29946771647613
27.42489122802732
-10.10067951170855
3.656857237762228
-11.81010462633743
18.25392690044729
-1.431894880834599
-0.6572820126311544
2.214732900555754
-4.73208649614697
-9.58094200133915
-3.478618203259882
-17.03854338857727
14.56865922739994
-25.44255781496137
27.91244197624185
-14.92749983425591
29.55690825221708
-14.62920876541651
5.333915278860871
-18.77618932371712
-5.073945875154267
18.51621992005462
-19.60560881758735
18.71925694617184
0.8848291418639898
-0.8277740798852392
0.3030644439669302
1.132643112158962
-0.6079334765541841
-0.2358807918993097
0.1646124599998239
0.2079492651260627
-0.1366809333424856
-15.30354926092024
19.5718705910417
-2.672504888251905
-1.595816441408518
-21.67668496163057
-14.96972111847409
17.04079726252251
-4.707255753806795
15.79821608615169
-23.88849989891186
12.79753956658059
14.85127321113989
-11.62590931003552
-0.380366713230711
-2.84499718786688
-17.09181740808828
-9.015804598869151
14.68465385932694
11.42296814765093
-0.03006553694293349
0.02139299903040326
9.69129133861983
-20.17892577773449
-8.222760900216395
-8.441722845798409
32.57075989476885
-27.42284358311884
3.293806534189194
39.65099278934078
-16.63378337160882
0.8157142821730892
-23.83292369987941
23.55442108020223
-16.25797302384973
4.216258172641486
-11.51270622891903
0.1593752432517704
-0.2665987139833145
-0.4819777870624427
0.5892012574850217
-0.1168937436156455
0.09807807654885824
0.01002039983272931
0.008795267129989221
-10.19840942264724
3.521613920479101
-11.99597977564738
18.67277527862028
-30.54454554164027
25.67035494013893
1.534087091814726
3.340103509769135
16.61209413331401
-19.00944697410209
-17.95437615127641
20.35172899206608
-26.55631161130407
-1.130827763586238
4.118857248311671
23.56828212658858
-3.485180712072636
4.915893710957338
18.21047734526004
-19.64119034412375
-0.9412053127310537
-1.525864707733571
1.354176331273411
1.11289368936186
-11.21349727068391
2.003440402729377
24.95803238237137
-15.74797551441632
14.29752267341923
7.353967876344142
-5.962187119484967
-15.68930342973232
7.364664571536372
19.98319025138495
-43.18362978774289
15.83577496483512
0.4611547832508947
-18.23209953416338
-2.824553395074783
-12.71837059054461
-10.78260236494933
-15.57576970928548
39.07674266477961
-18.93177488749678
28.59838332224797
-5.711707941921921
-3.954900492799962
27.3159898030818
-27.17264705232376
-3.795645736186138
3.65230298545127
-21.59517980185942
-16.49330467505665
10.1289590105867
27.95952546629229
18.66570187129566
14.01924360161245
3.043880152854789
-35.72882562573682
-20.10253860030751
-6.034645119678612
27.86758934686447
-1.730405626437016
11.45676916779101
-20.38669683921957
9.072010310438294
-0.1420826390179883
14.56670736856427
-17.48612094289744
2.917313105902808
-23.27016808843775
11.37059121685038
10.96548345195327
0.9340934196383236
21.60844206287594
5.138193482324678
-2.032856751228827
-24.71377879410516
31.0635749308464
-9.213955295288091
-0.9414915159629643
-20.90812811948459
-2.974408224765979
17.53877855865387
11.38397121865043
6.611755905561291
-18.87057142931311
0.8748443056804007
-17.49987946545419
-3.569494554359923
21.06779402070559
10.31429972542791
-4.13230839139267
6.477888549511245
-12.65987988351783
-0.4865754072507404
0.06425706920475238
-0.8929574394186651
1.315275777036452
-14.69484619123453
-2.096918769824981
16.79006318159549
36.64609943698101
-9.086031467644776
-16.7502632240132
-10.80980474530107
0.02877026884001234
-0.0995177115037409
-0.04614630100783542
0.05023754931912021
0.1158763381897076
-0.0680358110493102
29.21380251616328
-20.0408655021263
18.47351896797074
-27.64645598205482
0.1309698497689083
-0.1210227584572615
7.330842312474608e-05
0.2134443007377535
-0.08814707665761967
0.0393152358633005
-19.95223382475939
-0.01014988157771075
19.96013822407644
-23.79851753931256
23.95762489864309
5.835472082204483
-5.994579441578753
-1.460055073010396
26.56376503695948
-10.75946290752572
-14.34424705569148
2.291582677048681
-2.217674249296758
-3.68492913479059
3.611020706627404
-0.1353172827349208
-17.2892785108654
2.52234880482025
14.90224698868553
5.835601878021547
-27.40404986920415
-2.281954239344824
23.85040223053859
0.03013265021962757
-19.98441886547838
35.22162584429798
-9.099447478977327
-46.46439708782688
20.34221872253899
-7.238907751171556
-4.343754482938076
32.36272345457493
-20.78006122046537
-23.05273382051403
14.85139081888224
6.133716125728998
2.067626875885419
-15.45098538278324
1.734966856717041
-5.438101520588482
-18.3856275862604
-7.557630759976775
16.38346075458031
9.559797592028694
0.8103805132081738
-0.5498077223466967
0.2058586530989318
-0.4664314440008683
-22.4756725437006
-6.181498236694379
9.364794924857499
0.07060836849998441
-0.1183542302823004
0.02999549957842797
0.01775036211815101
5.40364027619907
23.75756475123335
-7.650961798389431
0.05070542734575629
-28.53781294765745
25.78757618246283
2.69953133794914
2.40134023398922
-0.3947573579087596
12.56820086059896
-14.5747837366755
24.24381272074862
0.01442414921013463
-5.396450115965624
-18.86178675383741
-15.8732096845805
-0.1745594914509326
-5.6289157855821
16.45376543432114
-18.38313429216435
-24.62694275345422
11.79269818344571
1.866366316361125
-15.04047372363711
1.381409224098648
-25.34409404377871
-0.639199097219781
0.7482520962645347
25.23504104475182
0.8984494285788099
-0.9467601046879802
-0.3265221826123689
0.3748328585479393
-13.12105105812011
0.2263995057051544
12.893041346515
-18.2563999573627
17.15109424574432
-17.00786555698131
18.11317126919469
-1.726499344611617
0.2485960062522719
1.455974583926492
0.02192875457929973
-6.393204491999084
22.84359017203071
12.99907907172162
-24.86344142221655
25.28200655355367
-13.41764420375139
15.69100041032852
-19.44543059859749
11.04134463486423
-7.286914446574206
27.80308716202272
-13.27202916206913
3.671433757627968
-18.20249175725167
17.65896447485573
21.8869916708935
-22.27380247570923
-17.27215367000619
16.7519087189652
0.9051336738836787
0.149160197840625
-0.01140487147666598
-0.07944445770662895
-0.05831086875166274
1.841104626443544
14.09339789823802
-10.8714692767789
-5.063033247896553
2.80245563713506
1.387822784891281
-1.430721735634233
-2.75955668695606
-11.64641674655199
-5.962737249809101
-2.60706465254849
20.21621864894785
0.006721912001326532
-0.123214665175703
0.03387605335615704
0.08261669972510689
0.350009118858826
0.07050407150093724
-0.4166455264555441
-0.00386766401032407
0.01362738661304262
0.5920538006901589
-0.614175403371464
0.008494215923103916
-0.7666976649531952
0.6922259444519211
-0.5998185651921237
0.6742902851504163
-26.03384919309536
14.37442588581576
28.41133202627681
-13.88572651505436
-3.602536710187775
-0.03053449298053841
0.1539837555585443
-0.1243885432530567
0.0009392805966131597
24.2091022893749
-23.66340711067291
-3.520103403460794
8.009077148360618
-13.56772589163453
23.7528212590293
-18.19417251489047
0.02221582909551559
-0.04627777065252293
0.23750624221968
4.274815437717102
-21.77649982825655
-0.313543949317806
-0.241546939874454
0.4112552488174133
0.1438356401825013
0.01372658436635665
0.1674808146681336
0.08379884546210176
-0.1283298000685685
0.05187132496114016
-0.007340370551353748
-17.7998138457042
17.34946729586076
4.463900603539134
-4.013554053747764
-15.7932742687469
23.34742584405898
-3.578113350806762
-19.77085113171097
4.770402408501059
-19.93565782852751
2.002466571403453
13.16278884738244
-27.28432900648309
-0.7143402630082277
31.61203089162478
-3.613361622068623
-6.573076018065924
-23.89745844297124
23.80521154006771
6.665322921023172
0.1063017638706933
-0.08031781845364799
-0.000549951634459232
-0.02543399392522063
0.5083289089356113
-0.7282933777395975
-0.006483790643468963
0.2264482591703156
14.91743815161941
-0.1767878639269638
7.210363929649259
-21.95101421732803
-0.4523067798678735
1.088576212047916
-9.377962320716385
8.741692888794484
-9.642499842290682
-16.81596860456089
19.67898102450473
6.779487422436037
15.56062413466224
0.1088879174326453
-15.55480690281091
-0.1147051492782079
19.76702263477173
-24.2050120028565
-8.440049295866444
12.87803866393707
13.15879829447283
18.19831927715153
-7.818156896453279
-23.53896067516284
-0.2082420474226812
-0.5419375125006688
0.3464799557214083
0.403699604132807
-7.316394058936292
11.11527702360848
11.60535122128454
0.5923338375191393
22.27266428856127
-16.05679538691085
-6.80820273918621
-0.09087489778673717
1.432650306982116
-1.334849361592601
2.416042723190583
6.052543313186445
-9.725359135913266
1.256773099285798
-24.82468725307711
14.34570146065673
32.08742785500018
19.06769651720961
-8.147464836701355
3.997206471120202
-6.818693597932574
-1.398369131236611
9.52237297904267
-1.305310250359811
0.1180052527214092
-0.127292600329922
0.009287347531731362
0.07564463286571686
-0.1414133146209412
0.08456389268242943
-0.01879521101079166
0.08896197847266747
0.09880513079165819
-0.1315263886189331
-0.05624072073502661
-0.07653320563211481
0.1140652319288233
-0.008761757533200187
0.1317318370630227
2.902375595593111
30.42394176509955
-25.16964550883324
-8.15667185187147
-5.775790723899635
2.632462042654177
-19.4099707013403
18.97254133690143
-10.97075817238678
-9.298081981757935
1.296298817285357
-1.762415469822568
1.888426121433609
4.45061744323704
-4.576628095663671
16.01185899149766
14.19872912904632
-17.0891307736214
-13.12145734690415
23.83487927865947
-8.324971723162982
-1.217573377372574
-14.2923341778642
14.3249510890477
9.418432376590426
0.09149581324727296
-14.84876391088926
3.048106433655388
-4.506738312709315
16.30739579025095
-16.93559830280261
20.59463349874531
-16.37740578648253
1.716910625502462
-10.46888626141063
-9.361039090566388
15.44365286579399
-18.27621400254779
12.19360022749445
2.766915040940421
23.11601980306861
1.177929367306279
-20.45745103857818
-2.432737559133316
22.88768391936041
-17.26809655931114
-13.4289995353541
5.682374154143816
25.01472194104272
0.005806952761872174
-0.1107473840187088
-0.01608232726378096
-0.140193283996865
-0.003876501516431891
0.1662856145395265
-0.1389281473971699
0.07437949623733631
-0.07471158028894886
0.02226024407110366
-0.2430988493891692
0.01602362529562117
-14.4802550648977
21.80704130130841
2.986978292901971
-10.31376452915868
10.48329539768894
9.274355704461771
-8.599780333516945
-11.15787076863056
-12.72891771792264
15.27429951186642
-19.06080557397405
16.51542378004052
22.33544560118238
-22.38280867332045
-0.05148650987845028
0.09884958212353966
-0.1379243062456904
-0.006369412389200899
-27.09333709147889
16.42245801512333
1.954621423949333
8.716257652699818
2.334129079104267
-26.31433229729796
3.139071120439214
20.84113209775878
6.166185632737839
-0.9968766818054228
0.3484828576068685
-5.517791809370971
13.72967730297655
18.07387094669645
-17.29429465901019
-14.5092535906601
35.4319413941156
-13.28711711032491
3.242463671769459
-25.38728795550781
2.379432533367899
19.66503538159393
3.505830436007779
-25.5502983509171
-14.75426496767719
-2.921033594072479
-2.176528180977722
5.721026438312707
-3.0955326055304
24.14516651388396
0.5090698191753323
2.399926558314963
0.2276285133343071
-3.13662489159079
-20.70048064578235
23.99763871665731
2.423868367448677
-0.9977440334498447
-20.03749881236754
-0.1317742770455099
21.16701712285254
2.422711847893277
-13.06924490272358
6.668951302013877
3.977581752833296
-28.48756229498906
28.51989797935444
-1.030079717834961
2.503738227028081
-30.35752254439684
7.816285504993899
-16.62883594298147
1.100791906414255
15.526891648686
-2.328608514531554
-19.26675267080775
21.59357199288066
8.10574466716319
-7.842762879679221
22.03916872448272
-22.3021505119349
6.161454858265222
-12.12944672682311
-17.23201316051876
-11.56842156056067
12.080693438306
-5.428313022289177
4.916041144557218
15.57483187143801
25.16712615890885
-44.84190224995828
4.099944219664406
-21.6309296645061
22.69805287067879
-29.55468550119789
-5.530362838141019
5.522574012315214
32.46823460058486
-32.4604457746987
-0.7127042605877209
-1.13139368328111
0.02313029574375235
1.820967647955185
0.3779797364132722
0.5894431169640325
-0.7195225157751242
-11.78953247941202
-11.10232976399847
22.87952470172589
-2.735058446127328
8.187652308504315
6.683346789386137
-17.08436717835479
10.61883130954328
28.41847483776215
-21.95293896903692
0.5716554765392843
6.668853519508939
-7.6928157752041
-0.2667321409429398
-0.1590542821351024
0.1856744089998681
0.2401120138529724
15.19507704947183
-8.447465882897179
-14.78384344845404
8.036232281930928
18.92057778550337
-26.815808558488
-19.06465558237068
26.95988635553084
-4.195501105239171
18.68397851298645
-14.49097426899979
-1.889950697212785
1.670497684370803
-1.297771523635078
1.51722453611628
0.5021713036478482
-20.26291058595284
1.311670606766494
18.44906867556893
-3.992724050988713
-20.26180637762471
24.00802251019047
0.2465079184012171
8.139130018552924
13.77681414050356
-10.00745482534958
-11.90848933370388
-22.86612276400069
11.06574901755893
6.780066255774114
-21.18107919071123
14.22422507101655
1.664988558766277
21.99484883513517
2.464676967473369
-26.12451436133861
13.04285581292687
-33.61417601755817
18.0813154272875
2.490004777358389
-34.73225867218125
-2.042180469778906
22.58263059188765
14.19180855000307
13.4360624085028
-12.68899437345339
5.283927438785136
-6.030995474612599
23.74270252606577
-20.54105034318805
-7.222231488859083
4.020579306058255
30.25832120729679
3.408334065177563
-8.726685591685927
-24.93996968075463
-35.10190573328473
24.86705908306241
18.41702588769813
-8.182179237932116
-16.17690691804107
24.55043631326457
-8.378788930521132
20.76822893941057
5.955863881209199
-19.51372889096595
1.152670646553265
-7.14425265040791
-4.769651982441466
10.76123398510674
14.7378455122729
3.206031801041137
-15.53588201258013
-2.407995300719565
26.08536500674447
-3.604905079757558
-29.05494900604861
6.574489079077932
-28.82857621356948
19.93802053866915
3.880307662925222
5.010248012194771
-3.274578783465822
-20.38289220801298
3.265718926250031
12.5105534549688
-8.367188241597315
9.748939205057003
-13.89230441838335
-12.19687325979067
12.15485689495006
1.554286985877634
-1.512270620965311
21.44336280839977
-4.27962543986362
-18.39905986500616
1.235322496486198
-0.5540580630018147
-2.566606547207128
-16.33373033180158
15.19014390817557
4.690023105532458
1.304940821240181
-21.18510783493409
-17.5302485785006
11.37740647567268
6.619115271325007
-0.4662731685008035
15.04980774476976
-21.0440702252412
-10.65172208019309
16.64598456079048
29.36963560691922
-8.913192026279891
1.356973110354706
-21.81341669054063
-22.11816396836339
-15.07728676394529
10.77349480281906
26.42195592962398
20.32251296038387
-5.457371073901795
0.3250020217010198
7.587519596951306
16.42366932894694
-30.29040379639819
5.995720301939147
13.85382883022907
10.44085466424377
-11.13707317965963
26.50281445382623
-0.4778916563918048
-14.88784961743728
12.63617437415257
0.6760410870822205
-17.78433041442265
4.472114952201516
30.74591425104557
-7.22841120201626
-21.06409602468124
-2.453407024343014
12.68364947563019
8.440988801071486
-0.5620305553773354
-20.56260772133166
-3.100213506618394
-1.182022710145465
-16.91448047066117
0.8257629427072494
-5.165253646292609
-1.442421515128145
5.781912217205063
-1.258741262094355
-22.11906611234396
22.88972261594888
0.4880847585827
-21.6509365271346
-3.425472768563538
3.672067257993932
21.40434203771542
1.347215367700935
-2.914619327760796
-17.53580904886963
-2.447340169570971
0.04973254057850803
0.03451237452738661
2.363095253274874
-15.49764193073843
12.06638376071942
-11.75363319435957
15.18489136440107
20.1132603068327
-18.4374209980889
22.6631673620467
-24.33900667066554
32.64539735211105
-12.84524916083775
11.26342673963286
-0.0247416925247365
17.56048488013382
-17.53858891888109
1.922523208469096
1.723120172256488
-1.807227357547628
-1.838416023834575
4.266278490866145
-3.533713914872284
26.0124917031481
-26.74505627910454
22.59240358226296
-23.33432253308942
-4.80942607299191
5.551345023861435
20.5993603961823
5.662494381052894
-7.038626724872035
-19.22322805231163
-14.01321940120941
9.116446297123476
14.10975267006739
-9.21297956597053
18.75127338997122
-11.00515505188379
14.97554113441839
-22.72165947248319
4.275637094714553
1.23686642305119
0.6536821140429341
6.503503289469092
4.754147071419412
6.104787409758423
-17.36243777069665
-2.3371180796064
-10.11122798615087
-6.644477837622999
-20.47542333265222
-15.28336212103432
50.1332113395311
0.02170362809133032
0.2782913011308972
0.3054452342753409
-0.6054401638702526
0.6270145362218102
-1.349914560966287
0.4467928978149688
0.2761071267338399
22.33417377955339
-28.40603933088754
-8.827996981882395
14.89986253329466
6.694680867125
-4.791919057925752
2.467957576448681
-4.370719385171044
12.72115259577414
4.629861219630008
6.576212247889295
-23.92722606337989
15.00040031908157
15.68106636735602
-15.7532451311192
-12.94071576519847
12.26413813447569
12.79854422891457
-12.12196659818706
-22.87219559979648
10.51566867425752
12.3469301176065
-21.95747439639008
10.01831022278267
-1.001551591601488
-8.96326153380531
-2.587014593082019
23.81441426146702
-23.61704099158231
-0.505811799254606
-0.5689993068036889
24.691852097968
24.43812763979978
-5.410140385901061
6.996472471325298
-26.02445972519219
5.880103002577559
15.25854593474401
-21.29628542193315
0.157636484632944
-11.2897267108263
13.19184450069609
-19.94229196149009
18.0401741716457
15.72558887953559
29.44267587309885
-46.36865467277353
1.200389920158121
20.98140301634325
19.27500173251536
-32.8917401773127
-16.7323981572359
-0.3260761643300593
21.32475281245457
-11.10653962126061
-21.08901168123059
25.60766876431044
6.587882538298289
19.95525463884974
-1.341501133785471
-18.616503638802
15.76120014659648
-0.6640531237554534
1.623946130863925
-16.72109315419351
-6.090679265215702
32.34729620722328
-22.45539008893698
26.46283260205431
-15.56912300752766
4.606280029206141
-15.49998962366526
29.96105338406382
11.28177945962552
-39.33294454314574
-1.909888300089452
6.028304782809942
9.475952873160461
8.44534695320303
-23.94960460915452
22.58551946527244
-20.78618794731284
-1.806085387267359
14.8964286679963
8.886147521680837
-10.37042542060328
-13.41215076889479
20.44986563889565
1.912751590159718
-22.31203927922854
-0.05057794982683374
-0.05661194792810795
0.08757140160221236
0.1339901166351517
-0.1649495704568191
-15.82223227625811
10.31306064843169
5.49614993415154
26.80897241203417
-10.67911956758372
-2.11868172054056
-14.01117112387681
-9.592170958736768
-9.916541261380845
19.49052524625032
1.501833775855123
11.90589444444224
-16.66420029631844
3.25647207612991
-23.31675698232009
19.76383289014727
-14.91358249291354
18.46650658558086
-0.2591102134207383
-31.54184160704655
7.783654900678797
24.01729691990797
-16.2264454553558
-12.74676777533521
-8.136191658037985
37.10940488869342
-9.156219671856261
-32.40077336164441
10.62933946621176
30.9276535673114
-2.934247109329381
19.61251382158909
-17.65019231191814
0.9719255996512312
11.99842644431363
-13.86300932930481
12.40170442816788
-10.53712154316599
19.60401702729065
0.1982533595556207
-19.8034320940915
6.036166588243471
-6.234921627764721
-4.665657382358179
4.864412421886313
-4.339292966967689
-19.00323988196741
4.310771399215502
-8.504033641743199
10.45376318152587
17.43271497858155
-19.38244451839271
-1.783996202015917
19.60137192802175
-28.33581740119699
10.51844167519476
0.05881517201078747
0.857921354840125
-0.289721990846112
8.104807990726973
-7.723559182298986
-12.23559350242202
11.85434469399602
17.82812438910294
-5.830019783722472
16.95218133090928
-28.95028593629681
-1.650322201073384
14.42044565404852
6.665074959314998
-19.43519841225551
-0.01392551411124751
-0.1540643291332008
-17.72099656956525
30.55846416991736
-8.787278524821803
-21.78447933193543
12.18417210815913
18.38758574868388
-26.86861819627329
-2.85804176360215
12.99426180265536
5.713423658207257
5.806502353636003
-20.47644908679279
8.95652307495809
-24.19509754496484
-12.81448225408405
10.14096160279749
0.0916999402682927
-0.07030694127566281
0.1093310895855216
-0.0176311493560179
-0.06534824007299719
-0.2378627054810569
0.1288722891556789
0.1743386560871286
-7.176778591047104
6.51310113305507
-0.06388248907332746
0.7275599463830803
-0.03671343230378473
0.1983849267191163
-0.09209190657140433
-0.02939374104087126
0.0726176572690384
-21.59864994136384
-16.44163189125718
42.17878051617303
-4.138498683542889
0.1358738121354011
-0.1047673516719035
-0.0218191129898212
0.08068739112096728
-11.43846186317741
15.47080853743379
13.40862682465277
-17.44097349888474
10.07445645245732
-10.2833212655664
11.78480441621558
-11.57593960310026
5.317619714140894
-7.375145201429984
0.002894085024227335
-0.07760566539978792
25.00544961751735
-22.57546752939612
-6.241802796705282
3.811820708605508
15.58613969888503
-13.21663430413658
-5.666258504640024
3.296753108510894
9.280483355252681
15.70078923804244
-40.4789145240177
-0.1425578177460037
0.02609322031157661
-0.02659763874066366
-0.09901329315166855
-5.576010082310153
0.9026024728203859
-15.55536195793449
4.544537264910582
-16.79315566184266
12.71201504841248
-0.4633966515722622
-8.676529463561765
1.511162751773198
-10.37671105209223
17.54207776388179
-8.232974365339381
-12.75735087718544
-16.46441370437127
37.4547389469336
3.501609816513546
-6.65379392617633
16.49890776378676
-13.34672365458191
-22.57751404873067
29.82116415282484
-7.244879775445773
-11.09586001861979
14.04181714004509
31.51598934185985
-34.46194646306291
24.15234665260069
-17.51500583793686
-9.754721496728957
3.11738068214882
0.01140451545043706
-0.09605867920701967
-11.97236516710994
-5.28801940541854
-5.199953165305788
-14.22022058622987
24.18369936630161
-17.36142915898782
7.397950378782123
-0.03829799375578046
-0.03823521192185309
-0.06489563252151748
-6.057825365644149
-0.08103470484709878
5.405425154642629
0.7334349157855595
0.01235800450520722
-0.0285005088745309
0.132018842487772
8.48147382003935
-12.85429950154972
7.849015389742662
-3.476189708302117
-0.8556999205808238
-14.1949806298813
-4.343671946069313
10.67208045519571
-4.262791684777846
-13.64086537220599
7.231576601339247
2.114484625371865
-2.522867934124025
21.51267868777218
-21.10429537898452
0.04602942082807156
1.134525272182817
25.40080125359306
-22.08942801988772
-4.445898505380987
-24.54909489812961
6.482249694801615
0.22172495182417
17.84512025152604
0.7149312970395278
23.90146670189592
-24.63911769637023
0.1089363991178685
0.1586692500260817
-8.362416577899301
11.52978189251089
20.180060529454
-0.6504083414883857
13.27040920308993
-24.56964859245909
11.94964773089023
10.32183195951593
-0.7306077251820534
-2.046296459727079
-7.544927774591931
-20.45902287439734
7.653087297432455
4.301901935191188
-2.73772884105569
-0.9910871490045303
20.98553798157609
-17.2567219914128
11.80232142520939
6.33390324285424
-18.14077990894189
-0.469544126536254
0.007552485764545388
0.5110078480968623
-0.04901620760385686
15.22846201422321
-9.33681030486513
9.668972425309699
0.9815639868228464
0.1419135860982452
-0.00827367909947711
-1.115203895298106
1.220495771583873
27.40205686793202
0.7470829679014223
4.249740958781535
-1.230194335489224
9.340079814264758
-12.35962643738154
-4.710765091730203
-7.63281905695907
-0.9673458783355912
0.9219629513493195
5.196597428460318
14.17200695439405
-20.29056733413988
-0.4295312367824826
1.457741265379647
0.9418581214526638
-1.97006815090597
17.66770138171775
4.649617948773102
6.45912896582317
20.54967181492196
-19.31731690844757
-7.691483872307756
-3.695449730415707
-0.3722222333906641
3.315876077949479
0.7517958858730721
-1.393423187570683
-15.04929957229705
16.43951451963034
0.8394874678405954
-10.99492797301986
-7.056295665341853
-0.5798980998806968
-7.842760984844545
12.49318992342137
-4.070530838606441
14.46838062804993
-9.837708821583638
-5.210569906279622
4.983565615339333
0.1939505970486667
-7.492344222768535
2.314828010302119
-0.06946543918445264
-0.005278204779696832
0.02990226796423493
0.04484137585563956
-15.88090194329946
-3.027178900043332
18.18243947959722
0.7256413637801784
21.17083664688506
-22.23854820316224
2.325620834359061
-1.257909278035164
10.93913053639084
-6.6484138220841
10.1776639137409
-0.4719921273703812
0.3727405003857948
0.09984936416586077
-0.0005977377526844742
24.16609961400584
-5.671529155116231
-0.9864458784242767
-17.50812458039488
5.012109319454412
19.13897926412731
-0.981995445513972
-23.16909313769301
21.93019371046561
-12.2304382034405
-0.9407512245544666
-8.759004282406691
1.254634597553026
-0.2104981702996741
-0.9683461913302102
-0.07579023625963832
20.95343511122497
-13.36189195958991
4.16397822961716
-11.75552138117025
22.85205342538555
4.227899046635724
-9.345719714452855
-17.73423275753709
-16.88668147560675
-15.42100739507943
30.53754382550552
1.770145045067383
0.3262113798607179
-1.011128910701297
0.5497181119556549
0.1351994185407047
13.68826874456456
31.43126598071324
21.79636411864941
-3.367040141279262
-12.99314102963561
-5.436182947653641
0.3728950775393832
16.58297643296404
-18.43285404949309
1.476982539271965
-31.34064961848463
15.4883411766545
8.209511200272098
7.642797241781964
-20.24149075708648
-25.08806566754911
25.91290284267862
19.41665358195251
-2.363397763301547
-8.113097475219355
19.45942016862899
-8.982924930097374
25.1601494735428
-12.38434611795015
-15.13920111884252
17.54252740294498
-0.5769857659461709
8.194607836610432
-2.603294726578159
6.630359885632131
13.5154622439885
30.49739744879179
-39.18068106062801
-14.36945020869181
-26.32908426781363
-7.581222631746155
29.68763680062729
4.222670098989052
-13.48323383381944
16.65318668690162
21.46179486806282
-24.63174772083867
29.00825604822629
-34.66745156999335
20.27395161888226
-14.61475609686904
-18.53995753620521
-8.18588249263887
22.83308212574286
3.892757903993894
11.48190723702166
-29.62836331787802
4.663222247684747
6.455477588420819
-10.86152892217952
7.012004301614916
-2.60595296910819
32.96157570611098
9.613756890454404
-1.666796032741634
36.35571841513416
-13.24834924193582
-21.44057314034232
23.22604957857913
-11.95003554665045
-11.28337204088942
-15.14259092202109
19.1135518610741
-3.057832168556939
-16.05797059434335
-1.063950600682211
0.5650021604498154
-0.2637112299704802
0.7626596704406825
-10.95399984414075
-18.67821267416094
6.150119140787036
23.48209337732681
0.1604856519896112
-0.1750852044599059
26.07542842855012
-8.887886304196579
-3.905912373436388
-13.28162975098825
12.48248183728769
9.651241427855267
-10.6769540973586
-11.25333853016229
15.80467645241105
-21.4007373401908
16.84939941845406
5.369549616776726
2.88747655771032
19.05156461635528
-27.30859079073159
0.2914210585039967
-0.4067359890100863
0.3189319938849817
-0.2036170637577119
22.19679569075796
8.82271633253213
-25.6499624061195
22.32783042402586
-18.0793799418573
11.90929583794472
-16.15774632007464
32.32499551853586
1.082896076430506
-9.520263262943311
-23.88762833213882
2.420459738114959
-27.76242425864742
26.519657683602
-1.177693162877488
-12.23807635625228
24.39595818236425
-18.88152914814883
6.723647321998132
-17.03925376477307
10.86153081176153
-4.793035219223907
12.70291716035286
-30.65510237196402
22.50508484367693
-4.552899632108184
4.41446363585504
-5.174808576806639
-21.1906692763699
-32.79343523254894
26.65272160640081
-3.601503450046324
9.742217076239815
-4.551108231097168
-22.27099641547538
13.57913058749901
13.24297405908516
14.22746444730806
-11.92837140962969
-5.818765741417709
3.51967270374673
-0.294690829650935
-0.7237128559472292
0.5705112050180353
-23.81360818832995
26.12100690029247
-35.10083394444372
21.70621206196491
-2.193433706579167
7.139943251053593
-2.906531093044516
27.99692191863316
-2.615621253587134
-22.47476957194424
-21.96153685268062
24.56437072426135
5.39137603099782
-7.994209902499645
17.12170944652351
22.293885050894
-28.96122307792931
-10.45437141955892
32.32665514741295
-30.14282046871095
3.54346145327936
-5.72729613208857
24.29708295627171
-14.48481557475424
-14.00472616296349
4.192458781496798
-34.39142713258921
12.20370173370902
32.9001875905236
-10.71246219150593
-24.23914639218282
12.34116720311128
-22.49344794341856
26.85670642376249
-13.14423093775732
0.334540689953077
20.06941929984658
1.605165040191237
-22.00912503000706
-5.804513640147332
-19.73147445720621
24.77024809754878