/*--------------------------------*- C++ -*----------------------------------*\
| =========                 |                                                 |
| \\      /  F ield         | OpenFOAM: The Open Source CFD Toolbox           |
|  \\    /   O peration     | Version:  v1906                                 |
|   \\  /    A nd           | Web:      www.OpenFOAM.com                      |
|    \\/     M anipulation  |                                                 |
\*---------------------------------------------------------------------------*/
FoamFile
{
    version     2.0;
    format      ascii;
    class       volScalarField;
    location    "1.2";
    object      p;
}
// * * * * * * * * * * * * * * * * * * * * * * * * * * * * * * * * * * * * * //

dimensions      [0 2 -2 0 0 0 0];


internalField   nonuniform List<scalar> 
19632
(
0.02535062268173574
0.002412395518590565
0.09718187992076012
-1.138102918606858
0.09762718597261491
0.07022933461864714
0.05360330335666156
0.03444074068337672
-0.02301724864153641
-0.01392389852622639
1.47144179555855
0.2117641268148564
0.01754383935713012
0.03269763916082612
-0.0225658212425539
0.01385106483710069
0.03783153315251712
0.4420631597188215
0.007195266773202914
-0.01607711630061499
0.01158123317049633
-1.518767201925703
-0.1365360464919149
-0.005579443936662853
0.002214077634530227
-0.003189578825817133
0.01735504280167974
-1.523911364043156
0.105150210118006
0.03272972023006208
0.01909014852026743
0.1767161895160453
-0.1315635121539543
-1.048694230019721
0.1751919525558646
0.01815317368604452
-0.01107488758255451
0.02110934411777434
0.02050360060798955
0.01803349587827252
0.006007402235557503
0.008754335423327793
-0.01283616399830412
0.2034457711712473
0.009076258614401641
0.02019492998781247
0.02413211958537626
0.03340442696350518
-0.002339874271826463
0.01982000085031819
0.006575853118588613
-0.03323025393877535
0.009444049603642111
0.2656965538877501
0.1251399626755223
-0.03203109085670137
0.3396102852848843
-0.01926230830115275
0.00429801364135587
-0.04242153428600381
0.01567670165462999
0.006375056595405749
-0.9866030578259564
-1.711619154372137
0.02847137287799638
-1.396049145963366
-2.144473060854769
0.02080258637715014
0.1570275943673491
0.001566319740005286
0.03574031638426971
0.04430413050705676
0.01919725038185844
0.01842671447395006
0.0292271028324464
0.004921109479136158
0.0268827363608445
0.07143053852397749
0.1378046403009164
0.01677324774938918
2.855185601996177
0.6592291278394543
0.02445510461857365
0.01745654616200372
0.007263501772639232
0.7429517232599524
0.007088922362329509
0.02082058474639368
0.400120016897319
0.3294772008054495
-0.03620420063171129
-0.009013054513799884
0.09478221527310872
0.03641110230192108
0.0154544346172698
0.1961089016839745
-0.007041216659770469
0.02643755484308661
0.02172124998771339
0.01579519594029315
1.191528347453344
-0.002555625731781476
0.06984461091805756
0.02583066915677948
0.02895068105345854
-0.1143624601352369
-0.3768325725896459
-0.01645690851232889
0.02271536878424877
-0.01311071500758417
0.4484529982778887
-0.0006008594972289059
0.2180145737901556
-2.308971980634765
-0.01638532561624289
-0.0257206596546859
-2.029501473095127
-0.1658396459440551
0.03199760567666136
0.02274442869637468
-0.01196881751173001
0.07417217527902881
0.01509438867548162
0.05169452057663599
-1.01617986822494
-0.1989052659676081
0.006829555875680645
0.0639234055933252
0.08170664179088326
0.00432642908339557
0.008707628773755464
0.007564707860224794
-0.1167069832615708
0.02787588886592478
-0.01446939887772644
-0.04472187221426827
0.1235286254104842
0.2751619732370968
0.002005856720488092
0.1131745760088893
-2.713583766265911
-3.754603763407222
-1.550289263925728
-1.406610581201754
-2.837725515338294
0.02960346538203166
0.02417086202528603
0.1560139952348784
0.02893810383075185
0.005885675533935701
0.02636976127444999
0.02788087558992864
0.02730505243396193
-0.005709379322334133
0.1224908801181543
0.02520419440459651
0.0363106031972705
0.01278560553690397
-0.05380953509447658
-1.577684222758514
-3.116821936713395
-2.193848186338105
-2.648751923080804
-1.585182383514781
0.03007921877487971
0.003847786428483745
0.01638221369251481
0.1737023411382672
-1.327737520834298
0.1953881594524386
0.001325248165028145
0.03093846245872084
0.004794574578561215
0.02126261823908491
0.01482210254249101
-0.08335566259010704
0.01159110263207319
0.03315151099434388
0.01224800637657033
0.01089946706536573
0.0003495031017170273
0.01227836680092983
0.009886923386453653
-0.008159502790788871
0.01225065826310972
0.03680299086768783
0.03483974725064971
0.001728599242253066
0.007508603643902431
0.01339104376483533
0.06780164006625125
-0.005971273447523543
-0.05605713632049195
-0.01036351033086566
-0.0005744770946633496
0.1161351180056631
0.06161738047713149
-0.04989574877441346
0.02652896300569015
1.3371666646678
0.007590946129471107
0.05065710793379718
0.0199207628191947
0.02109881333111163
0.002232694807541628
-0.01416673503950397
0.005128791352351927
0.01750044856105286
0.01442455454012581
0.02225188900490354
0.1092391682263993
0.05566022137779867
0.03904218213952641
0.2334485866264286
-0.003614759909611272
0.00603882110319718
0.1719556790668503
-0.001637726266548014
0.02273724697271948
0.1530452683047276
0.01391317608811522
0.02335055195456627
0.01084132640174777
0.02353028647185469
0.08766138257988655
-0.02192586414974796
0.04064297875372083
0.01477860547528838
0.1080968563536953
0.02432376707902305
-0.03191110652720432
0.0290971502805527
0.01965759163104391
0.02527250807487282
0.03984497975944951
0.01203331844136623
0.0191955489178427
-0.0253860092843268
-0.01639423164404643
0.005281992102818266
-0.01066287345466941
1.059129636493576
0.0396809172370013
0.07007405214757319
0.03795045815769998
0.11935398483897
0.009335827433474187
0.03669387688270447
0.02794518757907024
0.05036157862279592
0.03996861639352057
0.02305846854109702
0.0006891696299304279
0.03065035740656416
0.1603693174330377
0.05173115253369518
0.02176799759472604
0.08534398040283588
-0.07538009494655561
0.1272206665347758
0.11429629818611
0.2301315615482303
0.02076499307347988
0.02760417939804478
-0.02910157909193541
0.02641782264764201
0.02517822078118618
0.3559063709164342
0.01925387150510078
0.005197356153454689
0.02669881918658843
0.02326435616182264
-0.05180472054224993
0.02585138774629893
0.09535273207351182
0.004873174168159567
0.1302246750578686
0.263806676266759
0.04820107944556483
1.66807750311437
0.0238981949798328
0.16571848626644
0.02761106038710832
0.06037006248818548
-1.116453799331534
0.2469740188318895
0.232386761020482
-0.004437910593108031
0.1064426062274369
0.05095283519294539
0.03718970310977587
0.04148620591879444
0.0008753104371120093
0.008163286925302517
0.004281850230916481
-0.00512429835476528
0.003784673907352641
0.1467193242472864
0.04102368997254231
0.007789209538355003
-0.06849468593288566
0.01060788289439657
0.008231487389247089
0.009035437775903033
-1.51751470673995
-0.002111025854340125
0.01820889045097423
0.02399184830538465
0.02854536644121782
0.02558384122189544
-1.135814693621318
-0.7295778292597082
-0.1408422785448534
0.1222287067403132
-2.122559600703255
-1.913894480750826
-1.084171144325486
0.02422481960280192
-1.517534038086549
-4.633773520588385
0.02374993433845053
0.007729076967253319
0.6929094051725087
-1.171201393829002
0.01501117996111042
0.09525652494357982
0.07850968288692974
-0.5741811687406603
-1.796893548723901
0.05995843668899554
0.1595253224900154
0.02791986068561623
0.03607963360598711
0.1911435836698266
0.009164062395930518
0.400523368811685
-0.0117619594899372
-2.481743859110404
0.03347265689422743
-3.875119888900133
0.03118730204888167
-0.7552535786072949
-1.025853838048655
0.08127364079643325
-1.394547269336306
0.04377032913143499
0.09272167189398435
0.03150706928183153
1.326424117947099
-1.80751941934721
0.1060142416219107
0.01042839020629176
0.2621979778611568
-1.238482397908368
0.0006261793698309505
0.01535213338026451
0.007488440632675866
0.05060627359462604
0.0190036291217675
-0.02853290304623259
-0.08614349700297071
0.004800710105235804
-0.05809303961249587
0.1088780601973671
0.09412110628421053
-0.1928230665259155
0.0234069176769306
-0.03787019015872874
-0.008621902417410987
0.1214168367230892
0.009291443287881111
-0.00436191755459755
0.1028291933093168
0.02988908087537635
0.03082789919205875
0.074295493337024
-2.03456198792185
0.02769640976656507
0.0238585404263258
0.03106662908249207
0.1340559588284805
0.02562608909634483
0.1407423905756407
0.01132126534302341
-0.008102108341783135
0.02566310417576057
0.01200325900483551
0.04165805744295464
-0.03889706546802678
0.02627552224310258
0.02848111097049128
0.03434366154116214
0.0497669825847231
0.009427068918355711
0.0325843679031686
0.03106126688870939
0.02923886575102685
0.02906879898677283
0.02568877862495932
0.008542345341098911
0.1389521118079876
0.1050610756891346
0.08986708154965564
0.1272778242797618
0.01878254537511876
0.04655244588680705
0.06539833145086395
0.2610160761198937
0.2219154211017532
0.002218223984486142
-0.05539339740449624
0.07006210598509034
-0.1274059947041151
0.09678753604824038
-0.002280209089789037
0.08639944583592596
0.1010494724884869
0.1086320581497044
0.1003367652377075
0.05159079030455614
0.08685869832759172
0.01926698579717489
0.02534286899411713
0.1230350569040504
0.00677148938656388
0.003291810167048931
0.01399463130543075
0.02761923238404896
0.01413437111771459
-0.1919157657350953
0.01544431592505033
0.01326935763135098
0.01497940279940118
0.015971093253599
0.0538630144276141
0.0643783486762162
0.01526128773887882
0.01800772655859713
0.01789682319590661
0.01613049656366481
0.04321582230712945
0.4843074971227087
0.02517885936391681
0.05795195745052399
0.03765356106070591
0.03356462011241509
-0.001303780346705989
0.04570418371618298
0.01891977088556241
0.02043910050105336
0.04520955300816958
0.02181774673464763
0.04317532149623304
0.0220169475000078
0.02139391755916122
0.09074871478543692
0.02884965341389064
0.1467132175843161
0.1576860083632988
0.0656845405835442
0.09407761798218336
0.04711068749679127
0.02394770869199765
0.174728406676596
0.1358099792843517
0.1022404741394441
0.1004261650925272
0.06491015393771639
-0.002292391491597012
-0.01853522354383021
0.02604378337014316
0.01630116174781485
0.08990909843708589
0.01911399876543439
0.01092272423395091
0.03095955328569982
-0.5832526305718035
0.01357369594513308
0.1172016513750407
0.09290213373110205
0.08992892796648681
0.1315025967550719
0.02561622730653227
0.3619458638072353
0.2818087397267385
-0.7439983638497386
0.3081269357726146
-0.9716923238170493
0.03439214153853309
0.2857921475908969
0.01426982783067248
0.3314987011885793
0.07782969098666144
0.3075268892982804
0.3085824435791342
0.1069384215170921
0.02276203698233582
0.1844919166200147
0.2404715823172685
84.66115811317286
0.1813889153876816
0.2157562293891554
0.0814034841776802
0.015044611001394
0.1955191997440364
0.206472599450999
0.2337732871673991
0.1854266366459587
0.2473189945952055
0.02213992568645724
0.1969670677737227
-0.1860385100580934
0.1140047899564752
-0.07131718542437261
0.02507517506006192
0.04185911743422228
0.03149117133064457
0.1571544362074769
0.2436056544310559
-0.06122955332406631
0.03661806479660818
0.1492045325319902
0.1479940927921238
-0.9412264154193671
0.5359308014168793
0.515772964538045
0.3105965944973719
0.5823304661018712
0.0320471019702844
0.04189657209970184
0.181744897616859
0.0434292687396653
0.08076918067662253
0.07823955610003164
0.07097270868256007
0.147462395729266
0.05711032100524046
0.02765435426365585
0.2296066732422352
-0.01151597307220176
0.01579000417520394
0.06446644246111906
0.0703732945375002
0.06929615059272846
0.1181016786928452
0.1582396412371517
0.0392020162421407
0.02533927741786131
0.02378689621321408
0.08186560415423134
0.195557344959369
0.0233329983699895
0.01723829386223748
0.01377636169518079
0.159195839946346
-0.8071938497965635
0.1744750749305925
0.0170360078163544
0.1156915440691415
0.01888760228037032
-0.4792636182912626
0.01565531860970163
0.01048801149858859
0.08780346052353988
0.03806937391490089
1.068278889814602
-0.9621486674863873
0.008131525790611745
0.05067525689447225
0.01664247753524443
-0.9052017536218064
0.03872062360323347
-0.02474432321912992
0.0442762097468842
0.01360080979440737
-0.09432727199296188
-1.543746401852134
-0.06446645346371008
0.237674181352633
0.01548031201097007
0.1337968646648328
0.007997291908276506
0.0320387270387068
0.03342369153763386
0.1081042175508927
0.3222398573620595
0.03590757615613933
0.2091130950386198
0.03430146322222499
0.08222321114093621
-0.1355725766317473
0.02235734853022399
0.0706089505142628
-0.2239005489140979
0.01154822205997914
0.3180350864755097
0.03506062258429139
0.01855824755100728
0.03641437184567908
0.07883897954843441
0.02938446394155302
0.01571244104186267
0.05605508165141286
0.08249932623929333
0.02731539014588377
0.06048974212069995
0.0208366818888078
0.05239730007796117
0.07098999427467081
0.08298518547980938
0.06883493475786839
0.06689074024567068
0.060519783291174
0.173189174431908
0.02004465263391858
-0.2530753701692606
0.01953941158355862
0.01725601529717523
-0.3252759830883662
0.06635354559480829
0.03915516863067531
0.01839398880256502
0.04364532106167686
0.02869453531003697
0.02711483135257595
-0.2891962181151055
0.04743495037368111
0.03852642118429377
0.05767467813801842
0.0767914294943384
0.04122346468964649
0.03734028170870239
0.08753300514523481
0.2184195089711634
0.0727570006849529
0.04452241394352593
-0.007642290247276578
0.01709100073690456
-0.009312396080215165
0.0105261281548377
0.06234636522076977
0.04291092797951312
0.02113279238783582
0.2769214453620991
-0.1670598152870647
0.4292287259890112
0.04685930625416711
0.1730858309859944
0.09892415906552147
0.04807553121325299
0.02616142270672041
0.0506174351467664
0.03144397376359075
0.03151753977094546
-0.04710648395986543
0.03465035536242852
0.0340825035544478
0.04235894000483568
0.02098495229848558
0.006749015993932109
-0.5820897935975041
0.4542816637808061
0.005396661114981952
0.03269374219189218
0.06963352845420315
0.01509812458388765
-0.4747315361990734
0.03297355711575033
0.006966238311037933
0.01318913207022406
0.02442473972664141
0.001521466435667146
0.02200296693717588
0.03845247808923773
0.06285319530118542
-0.503091469078781
-0.1282615021046981
0.08023701121566264
0.07694281154619981
0.01776726094641408
0.04930892206126011
0.01337398565148697
0.06796056477824104
0.00872591621464521
0.0423303983858712
0.01671831752888695
0.02592919896059711
0.06425324855568519
0.02616082371701629
-0.6566738762645542
0.02415308416799379
0.04695894957632201
0.02271831618387827
0.0226460580197931
0.07741986386006176
0.04298662969242793
-1.360764910191209
0.06928195030251399
0.0707718186314855
-0.09458506651781581
0.06430110240295436
0.05796645186955978
-0.3628983553973554
-0.1529538368446126
0.05834309085796418
0.05887122526492577
0.05015200075726439
0.0662652065317217
0.03156592728760722
0.06664934891637925
0.005562531365802618
0.05645109685354893
0.04974459914016083
0.003752980060947868
0.01400003075874045
0.00400578083686117
-0.06884432269999188
0.06646776011842997
-0.03725846702204662
0.1694444870426325
0.04015311226037817
0.08990536959502514
0.02771801698663074
0.1758909722788881
0.02502215249384822
0.02261482053218666
0.04830282707701121
0.04746577695063044
0.1036670811069996
0.107108538969787
0.1362371870047901
0.2993297679646967
-0.4708814113032876
0.1151482377923845
0.18620543417248
-0.2356275728310501
-0.9763599129072432
0.2535217267757093
0.1958800514703336
0.1083801343733956
-0.02425043899793001
0.06735010009608107
0.2390516937845488
-0.7505107393347136
0.1877301035678533
-0.2769207249140874
1.416090627248948
0.2080182261403098
0.1768143164142367
0.03931466677727261
1.324756397525119
0.1723287734661833
2.804508593584568
2.939634642024676
0.0521033666158881
2.882475061281658
1.081326155395296
0.01819719743042833
0.01819955404837996
0.1996084504187808
0.02198573200936135
0.02140494315810342
0.001471357173831279
0.008281857651909204
0.004383149327485838
0.003097748081604723
-0.3085493324589757
0.004617603116791953
0.007651880575722078
0.003537558708573467
0.004899501642228617
0.03423387022855194
0.1303515600430116
0.08117535003934848
0.1213907423679958
0.03722733125181211
0.03777437682269459
0.03029915546947806
0.0288640862880153
0.03066918324788145
0.1031552875432136
0.02693584411024944
0.04814611283899776
0.3027054679249769
0.01031224263878902
0.02495380206943109
0.1640194779944892
-0.1173618720419551
-0.7179195594585528
0.01484718084520736
0.01379202067178878
0.008758819211050858
0.6741803132198445
0.06522074784531999
0.04871789049811053
0.3198472778301327
-0.02057114635021712
-0.02407665891664893
-0.005601064486205393
-0.005837006681253815
0.06075194716433713
0.05512659403285551
-0.126060144057357
0.02594908480944162
0.09832320757106615
-0.153103868388697
0.1925484942842967
0.02394952100520119
0.09659369636642788
0.09766041593633951
0.008981871196533146
0.0680602823489195
-0.07798444558144185
0.3840638469342595
0.06411144481600949
0.03001175529661155
0.03507704289274195
-0.2847609986710289
0.01857966910083839
0.06492804386946026
0.008220291059322852
0.0825095771184236
0.0773888099089249
0.0846548088572688
0.08692571626786023
0.08814127179402269
0.08633563742084649
0.06719043622503224
0.03144199192177637
0.06446928651131666
0.02485181456372814
0.07431566458377761
0.007840979375187355
0.1470444355610362
0.03650916337052774
0.3198555074860376
0.1515277900910734
0.09820560307492145
-0.1707535690294706
0.4809039440295245
0.04136392033790251
-0.3006983107939803
-0.006205819652889157
0.1883145114544759
0.09481433910539844
0.03468179710233966
0.3054892018884699
0.1685848444786285
0.04137439600680614
0.03393013324651044
0.05472347822884439
0.09785849608869963
0.02568862169611241
0.07682870531098558
0.07051248571620446
0.1444810106521948
0.02455968556631712
0.02652467308102488
-0.06761753859242156
0.3065252155111152
0.05044080886683652
0.02612206537463477
0.02739309839124716
0.02595812878448917
0.05556218269444293
0.02545634894583423
0.02653336716578053
0.02586801775384735
0.03414022874407716
0.02993718647755768
0.03421406311260707
0.0335485925343775
0.1416614452435554
0.03984688798447817
0.0331716890058391
0.08096801047871044
0.005776954501946666
0.04149869613883249
0.1575992951880286
0.4940230474496352
0.4529650548805878
0.03833984278796455
0.5215409108946494
0.6755794333751844
0.5106502800222393
0.7306790612143926
0.7221865179507766
0.02735164755723671
-0.1213865102536519
0.02746800209849077
-0.08827294034414332
0.02264191865386385
-0.9647312834543224
0.1511080774553081
-0.1342748246982683
0.08521835820915459
0.01838775489407701
0.06899509698049948
0.2881845348962714
0.01509070420733585
-0.008374682356725272
0.09797833908699652
0.02303463150608919
0.01312617540328999
0.2352202419983422
0.04137161422231021
0.01067347139990085
0.05723249871731354
0.02128871072072743
0.03335154432969842
0.04810208039936957
0.05205401946974848
0.04532840672674591
-0.0188828502282591
-0.4597967604575448
-0.01444716985735281
0.03341763176553376
0.02904052804669924
0.005238658307491969
0.01140893689538019
0.02467979771840112
0.1930505190624018
0.0176601864433317
0.09766598407142174
0.06927422467656681
0.03583217692854696
-0.0406157183359554
0.008648793013950513
0.07634538376849406
0.05829294810052744
0.01115329812791448
0.01545820686985326
0.01602887034985729
0.3549874652606639
0.01461370331840667
0.03359194318056212
0.01563887348662675
0.01477168346812885
0.01832769431714357
-0.4742933930156643
0.02373336609020282
0.2182762465946865
-0.600477116938143
0.1426414288470734
0.1920086886099885
0.1572793648358122
0.1418188476783057
0.185624830872039
0.1394303919416762
-0.1041032828967747
0.02764685214498096
0.02997603008817692
0.1290455379693372
-0.1522611110055729
0.01221432576156411
0.2121255093879063
0.03038949069338372
0.1150571106441372
0.08694298076643815
0.1061027071466274
0.07429558762595787
0.084297245671855
0.03333659331356992
0.05861551740733804
0.06509513816771516
0.01903982771645474
0.02193916938562349
0.02837041360639539
0.01734796332233952
0.01802579504431732
-0.3188620756684978
0.04784076415938101
0.02620776057758949
0.05580713260868309
0.03860917213362493
-0.9202660674385463
0.1394647488383959
0.05675605331381271
0.1798219280639752
0.06096221480104887
0.05463208278316638
0.05601490068830203
0.05999631664883524
0.04063261963457937
-0.06229015469959986
0.05626155911401359
0.05977910463744505
0.08875980458128074
0.2401790369800083
-0.6376803220636658
0.04283985154722402
0.1088017721812035
0.1234819863259465
0.01110112985934932
-0.8023888935773192
-0.04016585263291551
0.03950842467352617
0.08513917268486465
0.03845280359808363
-0.03080890406270254
0.1155514363249249
0.08677369004401674
0.1011126280647284
0.124104124057558
0.1290630738247955
0.09315914840482649
0.01415759846788338
0.1014660055759867
-0.07600914499859032
0.08413412449350299
0.02877679432794192
0.1113313709753128
0.1190591411253191
0.1054356752618664
0.07400668541389119
0.05122519939267708
-0.2539539353930144
-0.1239440962321352
-0.4294936726453185
-0.3420787053943418
1.07741841523508
-0.00570889034577284
-2.191815174310122
-0.08125352196549229
0.03869243154917119
0.4543658840814571
0.09292982194944351
-0.01326702097156117
0.09133012894674856
0.0666548534251712
0.06629939354741936
-0.1962454846845795
-0.4472239431193741
0.1082073581467543
-0.6976373058250106
-0.05504766486846424
0.01086349762751854
-0.005435853873563684
-0.1036739579453032
-0.2384648226702362
0.05345258866022861
0.05082347511914766
0.007176943826385528
0.06877108145066509
0.2041539293338341
-0.2817858123916563
0.02280691162138133
0.1014549327973186
0.2379997412746207
-0.1915632626655579
0.0135965362263652
-0.664628615726106
-0.07424707959318785
-0.08396336011106856
0.0575570229155013
0.2631755102060148
-0.004736818010111952
0.07147519407671821
-0.0007834240182610161
-0.1232572311885722
-0.1314412294756992
0.03499470905107835
0.005845121408986979
-0.1373371244761967
0.08600151145771082
0.09244829666460376
0.1062599649725277
0.01541158807982903
0.01569947436224529
0.0167010043324604
0.01764651378966777
0.01606075224948536
0.02449187615484928
0.07964039889359997
-0.3225497194224979
-0.00141618582162515
0.1456503333151026
-0.08645735957985397
0.1041630756567829
0.04533954256868049
0.1050138043963334
0.0662233157219652
0.1171468483154027
-0.0001810860411837641
0.02543997277489163
0.06188902287169817
0.0405163666526276
0.07819511656907036
0.03863926459556751
0.02624195599296754
0.03305788250531223
0.104744915966557
0.1136500501315111
-2.459328174868541
0.02733779393559267
0.05117026951789936
0.04656855986302128
0.03704181236176387
0.06869507236220311
0.01238524819211509
0.03715893891918905
0.008778583588176816
0.06923339978834603
0.1905464719434364
-0.07055142144435601
0.08499116229632812
0.06558665451759257
0.04469849736864308
0.02274547816822948
0.01734362192585023
0.05672330398911049
0.03149749410371364
0.05721433889905066
0.03147637977433608
-0.02624594751896768
0.1354835858051814
0.04538631988104479
0.05926340727550596
0.07117084836729379
0.07830132396831624
0.0272423729442299
0.141501994591463
0.02059978343180274
-0.003163230624397144
-0.01964770425309749
-0.1315733762042292
0.04565880716514313
0.1184938912779788
0.1387477420795957
0.02756997165424543
0.02696026994709069
0.00682454171912133
-0.008255876098808589
0.02822075385812903
-0.2027559631359664
-0.03244145170148487
0.02101510397132916
-0.5438516390824009
0.2464965051922395
0.2294538009583601
0.2667652461206418
0.2228825656025775
0.1869585015242685
0.224920107167104
0.2054903094049836
0.2383393283699413
-0.003198681840562754
0.2242088936505851
-1.358138676404125
0.1366828202810367
-0.5077059865484079
0.1435132584344961
-0.5421820732856355
0.140750414789092
-0.3330724978014225
0.07948711485954635
0.0827633849985572
0.07557104104987253
-0.2356318999506037
0.07932876884318607
0.06659558349848356
0.03135826792832725
0.03166725645017596
0.02839048769350154
0.02581363259274646
0.03366612493278585
0.04130791909972268
0.03387766665309064
0.03145873007250265
0.04063727028287285
0.02621688225510612
-1.073472725307577
0.02523829798389664
-0.1821634909338349
0.02385706668477423
0.6291429101027523
0.5505836979874267
0.5640718281546997
0.01849175157052163
-0.1203702881608926
-0.1014874284419066
0.6742414492856365
0.252324017351661
0.1320096296693237
0.1309002729052032
0.2648973617698377
0.2957368553835872
0.04771254320620408
0.2445424723508289
0.2386223398297374
0.3036951226970944
0.0346995746012471
0.07949932687150997
0.3724698530521341
0.1332540757843429
0.05912025424726226
0.09913191826548585
0.1883670766423196
0.01944661129333636
0.09816933442920509
0.02949577882315035
0.09025541334656961
0.04001143138106351
0.01260744395026724
-0.4824406708000863
0.07013097467202845
0.1528174602342707
-0.05972703119126032
-0.07111398948879837
0.1174566086763072
0.1265822555985077
-1.052175815588609
0.1309970920437682
0.1169019739186667
0.06223760677310455
0.01193219126195121
0.157299493951246
0.1606607281105936
0.1601270025445496
0.1167336740077095
0.1801716543196485
0.1472486742144654
0.1292556458317817
0.08018115922146653
0.02883501574792455
0.03735346766314714
-0.346872917332027
0.02701362746861605
0.2445540811227033
0.005993120297653083
0.02815583216217833
0.02633271978429191
0.02040560163041831
0.002324198269840226
0.02338228791508262
0.01041784305660191
0.04017437681539453
0.02826943069286831
-0.3002361776109733
-0.4184146269824005
0.05754359729391975
-0.6893434054880634
0.06571724534552396
0.1226897000698029
-0.4330656747735244
0.1371054562233641
0.08520726799805303
0.1391728607297114
0.09042513944003343
0.01254630793602453
0.3353519618995354
0.1342874284973942
0.410620639910402
0.1328026261431104
-0.08092555436529554
0.1846727799847289
0.09513658729365193
0.0514852983811833
0.09518463676235089
0.08237398579235249
0.1145717922508146
0.1070143008072737
0.01483343709018777
0.09457256159443714
0.08801953769932663
0.06496095373117207
0.01745895744595449
0.06682840975065561
-0.001501704485094696
0.2799050322928771
-0.2356666548835135
0.06852683070199765
-0.4120058456467096
-0.2460549841211248
-0.06929763098939642
-0.3354759463355895
-0.04214055758062532
-1.260666797370667
-0.3724882473492678
0.01531396443250942
0.07065498620241802
0.09851551599486914
-0.2010168691238473
-0.1685513390658374
-0.3375272664113648
-1.851179491555433
-1.188152367448305
0.08070122375177105
-1.01212194446754
-0.216848127191216
-0.02845461474729025
0.432155790443262
-0.1142564035299366
0.03764717273271966
-0.1841020984177421
0.05680341919627424
-0.4393587369818219
0.06350241742655677
0.02823339668909388
-0.8853051360550751
0.03326017093320457
0.02197608876586768
0.01723580163601608
0.04185572153288551
0.03748226432585564
0.05828560977959503
0.02685219872890381
0.0833568212115558
0.1306240545230726
-0.1373934482371634
0.04206618038165065
0.02426809490832606
-0.02778804387721291
0.1433726309452532
-0.06856708275484302
0.2613815594080849
0.2599019284488307
0.2352497111396836
0.05443776218677682
0.04137532411035955
1.142146604858288
0.1718944370042429
-0.3236660864446633
0.05495936400987914
0.2992287236643084
-1.487996314658255
-0.06292790910825286
0.2029167773904068
0.6556374915035809
0.0385475657225498
0.05804385248663457
0.03985540356819074
0.1405598736879458
0.06075925788943526
0.01464022043125875
0.0427642485992693
0.09619672058561993
-0.03744044413025169
0.04015169399374963
-0.03706251897218761
-0.02155437504556738
-0.1172708342653585
-0.3782590821291117
-0.05552314660372194
-0.07863050637143414
0.03052185186983093
0.0223824889172314
0.0173898064934783
0.03463768243132177
-0.02235130406702765
-0.006144716902521999
0.06857179542541329
-0.03432648317399108
0.2217843320389476
0.2755909132283262
-1.352309368893187
-0.289923859716664
-0.5010221556561546
0.03675890622542898
0.09714539136362414
0.03952322395610575
0.08351230004978732
-0.4139050322318817
0.07887238141050086
0.02215572186352578
-0.2500463762963207
0.04773003568560909
-0.375715305455029
0.0335106799583317
0.1886941146799794
-0.2438424736587682
-0.7567952795073626
0.2372797747255029
0.1153785950935121
-0.1326110637177237
0.1903260063583142
-0.4002601962702197
-0.01399633125306141
-0.3686879938481559
-0.1480718090581966
-0.3732994035580844
-0.3429458262464878
-0.2407123208373835
0.009397757979642233
0.0709068743341331
-0.04585787883731852
0.04249804498774842
0.1196783903328188
-0.02868531961098736
-0.0006655047880720658
0.009684888254468012
0.01639075125820928
0.00828587579744623
0.0475712073949251
0.08230889840588428
0.02189356639392317
-0.003517555193441345
-0.08169510316387094
0.01702916578579313
0.02615910628953535
0.03095078343200128
0.09021451402141654
-0.20848150198823
0.1171179140439896
0.05193860152725219
0.02250226046431262
0.04952938036733947
0.5095763667460945
0.02158857455664021
0.06377927819519776
0.1303558841481649
-0.433191235180456
0.02263481847904662
0.04066240308775325
0.02417640165337709
0.02650171192542777
0.08944551141215895
0.02999473003305948
0.03180208535060783
0.03345790178917147
0.03067299126613258
0.04001368076518372
0.01169984853429115
-0.04949783787849017
-0.6423167491462523
-0.045360520391237
-0.2077053039064351
-0.04589694993420228
-0.005402103539605029
0.001483701063217144
0.007532893726099988
-0.8071002793350005
0.04070720562794715
-0.1680499789151532
-0.1496787152652675
0.1790292994023323
-0.163651990467829
0.1491705222584523
0.2648225407278983
0.107473074097102
-1.305833832983178
-0.3227626848554985
0.07749850900754855
0.1709811030127347
0.02674959333363443
-0.06833504673997427
-0.5077486049952372
0.01146494483984976
0.1315166761115549
0.01624977935827901
-0.3314015435828339
-0.3894753253532456
0.1980195007468559
-0.03646191649073992
-0.003965692024517404
-0.1871245903253815
-0.09411479952106643
-0.3041247421331856
0.7965138505670211
-0.3203979060214747
0.03951149447303815
0.05430372912046151
0.0910419573042353
0.03891895505197807
-0.9308748547557882
0.03182868743291867
-0.9490185876760697
-0.1491026448050585
-0.1643761592159725