/*--------------------------------*- C++ -*----------------------------------*\
| =========                 |                                                 |
| \\      /  F ield         | OpenFOAM: The Open Source CFD Toolbox           |
|  \\    /   O peration     | Version:  v1906                                 |
|   \\  /    A nd           | Web:      www.OpenFOAM.com                      |
|    \\/     M anipulation  |                                                 |
\*---------------------------------------------------------------------------*/
FoamFile
{
    version     2.0;
    format      ascii;
    class       surfaceScalarField;
    location    "1.2";
    object      phi;
}
// * * * * * * * * * * * * * * * * * * * * * * * * * * * * * * * * * * * * * //

dimensions      [0 3 -1 0 0 0 0];
oriented        oriented;


internalField   nonuniform List<scalar> 
37377
(
0.01622280342940662
-0.8086681316901823
-1.44865744481233
2.241102773093574
20.62020418932143
-4.650458502569054
-15.96979604652052
-16.56485114993
8.225814110563279
-13.2891539421549
21.62819098151685
0.2265137544999924
-0.01000422401042596
-0.03893696794505945
-0.1775725625706938
-13.90721099788434
-12.08629189505522
25.99143118406966
-15.07704854743867
-30.35359453662564
29.13160476039033
16.29903832368069
-8.937576549054532
-24.34725762628965
21.31473767671553
11.97009649869931
22.75706568401961
-22.15968758313909
0.5014433479480418
-1.098821448809902
-11.27700708744122
-5.812728692803772
17.09068097211453
0.1638768452734595
-0.4952553202719481
0.3917578601203902
-0.06037938522003442
-0.6937604906595451
0.5122431432865789
-0.6090044035475868
0.790521750833818
26.58748021380245
-24.15152745733225
9.188317749012358
-11.62427050537697
1.512360385877716
-14.62438929156158
-14.3130545572259
27.42508346294872
-10.10394324371296
3.663671428865766
-11.81928806018026
18.25955987508694
-1.432932746447712
-0.6504238203401428
2.21030571740428
-4.869565331510251
-9.486634267403954
-3.435867686107361
-17.13893633646301
14.56157091822475
-25.46218853807101
28.03955395634494
-14.9460146615039
29.47766293955339
-14.53982862332595
5.336815571403259
-18.78037952928224
-5.077004915973621
18.52056887386815
-19.60474277192556
18.72188519709368
0.8831931537747416
-0.8267990520859538
0.3110238702691522
1.130243908143487
-0.6144687264093286
-0.2412446006794253
0.1647209264375379
0.2080884154964902
-0.1315647412761079
-14.13739544666792
17.96387900698641
-2.554403482910935
-1.272080077255783
-21.68142430260485
-14.97578923320899
17.05247076389015
-4.710657316167731
15.79375123462329
-23.8896685779746
12.80657465952398
14.85283639094519
-11.62561759824219
-0.3804053393763445
-2.846813453324269
-17.09512440794111
-9.025043569205813
14.7070355676522
11.41313240950212
-0.02926266597235008
0.01453181978882029
9.709404000207192
-20.24418041806819
-8.176333832790307
-8.443183961935267
32.56024972595455
-27.42094760851679
3.303881844512742
39.66893409564535
-16.63513742521208
0.7795464052255283
-23.81334307564971
23.53763175402052
-16.27740928218334
4.240233057298225
-11.50045552911712
0.1598671130896446
-0.2644144881297971
-0.4842688322508933
0.5888162072031229
-0.1207288918016531
0.09702009321101059
0.01727717402512613
0.006431624541739378
-10.20189866787069
3.519238153397986
-11.99699856041993
18.6796590751889
-30.54340012446007
25.67702223578538
1.531072956429484
3.335304932275599
16.61739457733677
-19.01149394824712
-17.95618931837331
20.35028868928422
-26.56216961193399
-1.132258215745658
4.119796849312026
23.57463097837109
-3.483633855733492
4.907788788565501
18.21485559289897
-19.63901052572345
-0.9406972599687681
-1.522487912366798
1.353149828280279
1.110035344050269
-11.22045206978195
2.013651248728662
24.95512938591788
-15.74832856486455
14.27528556934632
7.291784413743251
-5.893600565649333
-15.67346941724948
7.35144930868332
19.97986064486084
-43.20662373560585
15.87531378206642
3.200583574709913
-19.43122578930278
-4.166166641518045
-12.71795122326101
-10.77134405325362
-15.57477191442294
39.06406719093757
-18.93542635812912
28.5947536797609
-5.703149008899703
-3.956178312721281
27.32152035112533
-27.16976007089061
-3.799587064977858
3.647826784751791
-21.5925550574592
-16.49677707618367
10.12672134263835
27.96261079098991
18.5947793173336
14.13206835311458
3.010742882110904
-35.73759055255008
-20.22584730836365
-6.316216243763821
28.08153440018778
-1.539470847910131
11.48930830084273
-20.38047681622952
9.052207483293399
-0.1610389679094778
14.58512836321618
-17.50087019042762
2.916590251045222
-23.26487744231734
11.40027416200682
10.94020722417002
0.9243960561419997
21.60668362934777
5.178679913219851
-2.016782533808145
-24.76858100880658
31.04481659430907
-9.170155461662317
-0.9227051109510317
-20.95195602165662
-2.96671774850366
17.55270597371842
11.36522746071991
6.660605304724823
-18.89658920124345
0.8707564359950015
-17.51237573289619
-3.568889201884767
21.0816762803804
10.3209464721062
-4.160095274637281
6.499598208273096
-12.66044940573184
-0.4963812435500274
0.07527983240559985
-0.8978710538523323
1.318972464891989
-14.69514235801101
-2.095048842392252
16.78969588013254
36.6680971701081
-9.096785569152807
-16.74927894024752
-10.82203266069993
0.02134989454147674
-0.09577685441776757
-0.04630193193706271
0.05795071651453497
0.1131540193126029
-0.07408464263939907
29.21841856190428
-20.03790239448854
18.46865438986956
-27.64917055730401
0.1386833612454235
-0.1206262223838785
-0.0007799648569592773
0.2190336003448458
-0.08835780121354599
0.03404512729488873
-19.97764058342594
0.001452414168808913
19.97569055450911
-23.79877115592095
23.96268490243992
5.825616254652697
-5.989530001188179
-1.553978666254578
26.58315960216795
-10.70527071066353
-14.32391022500269
2.289774505055548
-2.216856556316342
-3.682931265603089
3.610013316743899
-0.1415137896736467
-17.28737820663941
2.525627116919544
14.9032648793571
5.844499718137498
-27.41842019351129
-2.277258963456849
23.85117943883452
0.01982863012240068
-19.99791522906798
35.21975379185535
-9.094948202412903
-46.46873824816233
20.34393265873194
-7.246098905997134
-4.339920264299195
32.36485698555462
-20.77883781525815
-23.05727252656207
14.84943149335602
6.139059904072017
2.068781129127917
-14.31003783406693
0.8936222206990839
-5.736097989586239
-18.44992500436792
-8.671285906542289
14.00093006854592
13.12028084248771
0.8088203207216207
-0.5485571839119018
0.2057794867570719
-0.46604262359099
-10.0939067274451
-20.38809150662426
9.769605659169509
0.06764498569611811
-0.1199000935536649
0.03410408411035892
0.01815102371470712
5.398042489946568
23.76912059940009
-7.652685984279837
0.05107318048371692
-28.53434871721006
25.79230293205746
2.690972604704696
2.399245549765523
-0.3946937674187165
12.56705875368197
-14.57161053602741
24.21230008704918
-0.1884684085845554
-5.30334956839874
-18.72048211001209
-15.87260801020255
-0.1812580934720044
-5.627558198923982
16.45618879351405
-18.38721591014886
-24.63114249529684
11.79160919200432
1.860885217968778
-15.05769296204176
1.405198552163345
-25.41019172684312
-0.5858710610336096
0.6775089310422611
25.31855385683994
0.8962860750885296
-0.9467524199663336
-0.326417854125364
0.3768841989564584
-13.11682344769399
0.221451256435017
12.89558998357487
-18.25877874323995
17.09536817844313
-17.05972262788512
18.22313319287158
-1.728474507876408
0.2444573648157237
1.458229853677061
0.02578728941349866
-6.396661891835305
22.85236052304242
13.00318955097851
-24.87189252967411
25.29493283203516
-13.42622985357809
15.70145870960912
-19.45151166928516
11.04778194757498
-7.29772898789159
27.80581705923192
-13.26474831028381
3.66774077754585
-18.20880952637561
17.65463350222415
21.90141438868781
-22.27511110554851
-17.28093678535105
16.75367945175165
0.9005279825942178
0.1501802160473453
-0.006657981152431966
-0.08316029954719346
-0.06036193537889904
1.844103505458237
14.08679790029464
-10.87007770804079
-5.060823697709909
2.798594831454633
1.388134603387135
-1.424988741419729
-2.761740693615555
-11.66007509445834
-5.957072955159722
-2.601944457184394
20.21909250681615
0.007918187629800844
-0.1236473770816355
0.03368609052102899
0.08204309890990127
0.3492018582116291
0.07183312494704289
-0.4162827577994098
-0.004752225394076746
0.01651421605139906
0.5529609652060886
-0.494451512112719
-0.07502366917975524
-0.7675647735968295
0.6938303773811365
-0.6027033094375579
0.6764377055129495
-26.03639647029796
14.3783006150505
28.41177530701057
-13.88288965284657
-3.61755296522133
-0.03236365056403495
0.1568345483451971
-0.1184266861920319
-0.006044211614580331
24.20733207827617
-23.65584717454045
-3.518202652236877
8.009087347392576
-13.57734859871335
23.76361355059288
-18.19535229896014
0.0204353655823604
-0.04148064873872684
0.2400788834832239
4.270623001648765
-21.7825707048437
-0.3073108297839799
-0.2392857807011523
0.4000134776542909
0.1465831327738287
0.02577214849586544
0.1708619292525805
0.08302720242239076
-0.1284505247901266
0.05230228778948921
-0.006878965460916315
-17.79462806559085
17.28497340132854
4.549707153529565
-4.040052489286636
-15.79505717606596
23.3402512807646
-3.563892253242418
-19.77613283488662
4.775012188368223
-19.93771324167437
1.997246907201684
13.1654541456865
-27.28741874754035
-0.7000420167766452
31.60261009947694
-3.615149335137017
-6.578391428273498
-23.89904092850615
23.80703538147783
6.670396975321018
0.1043524679224335
-0.08003435724065769
0.002889057774614857
-0.02720716848411221
0.5088341581616329
-0.7286789502786016
-0.006942570908371202
0.2267873629426499
14.92615446042547
-0.171772035395802
7.202615414227201
-21.95699783925214
-0.4486345276514774
1.088492683152412
-9.381351869442142
8.741493714004692
-9.635064406003055
-16.78467972273319
19.62506111924655
6.794683009521532
15.56333786727724
0.1017365391987944
-15.55045928298384
-0.1146151234901668
19.76757249463266
-24.19846621358599
-8.452987430216719
12.88388114916506
13.16260482250587
18.1959937518849
-7.825766841525539
-23.53283173286213
-0.2105289639219577
-0.542419899748338
0.3496330014667104
0.4033158621748072
-7.315394664279921
11.11936649199972
11.60368618272559
0.5190575994069657
22.09352596337956
-16.03434642407362
-6.578237138718682
-0.09573372287838938
1.428787918608987
-1.329217669338428
2.41679090529321
6.054672339328611
-9.723483082420177
1.252019837715813
-24.94464186842545
14.38354717577488
32.16777832189504
19.07240523313263
-8.148073551212864
4.001822778508815
-6.810725619962287
-1.397585604767555
9.522075584269128
-1.313764359709129
0.1020691374141585
-0.1204728583352164
0.01840372090307787
0.07253088315240722
-0.1423639280396054
0.08848304526364534
-0.01865000039433469
0.07913894271134558
0.1030763419416358
-0.1303121833123497
-0.05190310135728343
-0.076517005467014
0.1150713313881576
-0.01720443139642209
0.1278412859042057
2.904274863819696
30.42894995519295
-25.17030372515005
-8.162921093866807
-5.760464118029372
2.597386613917696
-19.38900166641559
16.94930298708091
-10.11069344085656
-8.224225617405626
1.385616071195701
-1.758352749848008
1.888031801050657
4.448829924151438
-4.578508975673035
16.01463789536712
14.20020837413594
-17.08751946566995
-13.1273268038266
23.88607520166543
-8.354855041395876
-1.225263182390889
-14.30595697778072
14.39905533089839
9.384928537031893
0.1020913338143934
-14.87550242860132
3.04175056964836
-4.518227212565156
16.35197907162989
-16.93799027122098
20.5980061645137
-16.37796711655205
1.794662461426968
-10.52823568022628
-9.379002983856946
15.46930824751189
-18.29415942663604
12.20385416304909
2.772090567919677
23.12120409963077
1.171596761028749
-20.46848752628151
-2.430345880562074
22.89851093182502
-16.97513135057505
-13.58380147112197
5.839698171885713
24.71923464998551
0.009706606376681229
-0.1127783685602016
-0.01755446021431814
-0.1416822335963063
-0.0007996611256363894
0.1629172602894753
-0.1404613816684549
0.07131003121809648
-0.07816611135016174
0.01494112600899458
-0.2465685490001496
0.01774936611007907
-14.490159080658
21.86047232824743
2.961959775798546
-10.33227302333036
10.48613731493223
9.268908986698465
-8.60682987426908
-11.1482164273605
-12.72410151025159
15.30059287896572
-19.0713784263307
16.49488705762021
22.34255308812124
-22.39017783198967
-0.1538493908219958
0.201474134727268
-0.1387483522059474
-0.004743854860016977
-27.09750092992208
16.4303114852971
1.949775004848095
8.717414439889536
2.350135939656748
-26.29562522717825
3.135982537969128
20.80950674955389
6.163196646768037
-0.996187977318017
0.3498926080903574
-5.516901277803766
13.83609873980984
18.06664424308626
-17.32809136915332
-14.5746516137418
35.42340997385467
-13.28964350511755
3.242298945157308
-25.37606541387616
2.389973991929685
19.6465997048531
3.503077205986849
-25.53965090275107
-15.11473795915237
-2.796911772207099
-1.970423909808587
5.731358288066746
-3.114887934437852
24.15403059529694
0.5048830767172722
2.399232186604694
0.2304011866539419
-3.134516450226018
-20.70189913160143
24.00030866426234
2.432948755410187
-0.9911226666671721
-20.04334323530889
-0.1358161052816123
21.170282007254
2.424439407102077
-13.06768111650894
6.6666872959482
3.976554413464573
-28.48957397222598
28.52695224280441
-1.02850093725223
2.505484753437453
-30.36104485338617
7.812216864637173
-16.62000294358537
1.097343466335529
15.52286882700241
-2.322863924945619
-19.28924712171795
21.61179484467481
8.103776486668099
-7.838204314624663
22.04073776119677
-22.30630993322869
6.143524797685012
-12.12031243111968
-17.21997902595653
-11.57026374075354
12.07902138048433
-5.428107493249121
4.919349853523007
15.57889999976178
25.16967153709487
-44.84115532957532
4.092583792737642
-21.63136641525434
22.70305336571276
-29.56126092269675
-5.531732737479982
5.50994418574868
32.47896481622774
-32.45717626447533
-0.711377456741607
-1.128267588958734
0.01927156117269973
1.82037348446653
0.3776629834452977
0.5865506637590119
-0.7199065679449969
-11.82607265027979
-11.07488557176383
22.90129279363902
-2.736195811973403
8.185389871024848
6.686979422356616
-17.07926530145401
10.62484803654424
28.42011271471299
-21.96569544983663
0.5715623222913401
6.670852809882491
-7.691049659598575
-0.2657153234576443
-0.1557527516466876
0.1950970096512562
0.2263710654011268
15.23336535210177
-8.467653761594978
-14.80435728149551
8.038645691006845
18.73443722233163
-26.78184590940029
-19.16995273966242
27.21736142679023
-4.19773486051493
18.68433460725657
-14.48681314671443
-1.88818443643534
1.669656368174494
-1.29548001416616
1.514008082322558
0.4989113690330198
-20.26224468532671
1.310093474401715
18.45323984190294
-3.985834296734398
-20.2957389429904
24.05133363589072
0.2302396038268964
8.22607710899949
13.82886830204444
-10.04353237720219
-12.01141303384068
-22.88062572752206
11.0550101966017
6.778892859982593
-21.18040466954968
14.22973977417354
1.705770167910529
21.99532872834846
2.463515096263877
-26.16461399251056
13.05236428477661
-33.60819825742359
18.08447650954308
2.471357463109209
-34.73242334365398
-2.038393863623056
22.58648347022092
14.18433373703067
13.44580330564216
-12.67435920375821
5.298276044136845
-6.069720146283391
23.74375546397143
-20.542703614626
-7.217082181630224
4.016030332312519
30.26019211613545
3.413397390148764
-8.732564228878198
-24.94102527739411
-35.13552619480181
24.89077186757561
18.41878730986355
-8.174032982784608
-16.18751599182861
24.55604570799723
-8.36838829308282
20.76874746946877
5.950427313511835
-19.51655936875184
1.158147443872102
-7.144906325133369
-4.77409318402669
10.76085206485502
14.72416807747439
3.202610816106157
-15.52910760658455
-2.397671286990682
26.11204606498129
-3.605235229056233
-29.08223704344076
6.575426207521525
-28.82313138259892
20.10388021437312
3.856997701033748
4.8622534672683
-3.22769914115002
-20.409418727359
3.249455136445387
12.54229040796716
-8.409269066836051
9.74909105457902
-13.88211239569419
-12.19744431535044
12.1571132574123
1.543748512851325
-1.503417454887874
21.44818462147407
-4.275620106160818
-18.39448689162152
1.221922376314
-0.5484322342359633
-2.617081364625054
-16.28715385487273
15.08609559854724
4.731442405614476
1.342187716442041
-21.1597257205988
-17.55021147993468
11.35844098209646
6.662567991009207
-0.4707974931722826
15.12334852609011
-21.09695915813515
-10.67167729542424
16.64528792751275
29.37470266334808
-8.918630162243707
1.357212248154797
-21.81328474910856
-22.12247040451954
-15.08866917519636
10.77810160791517
26.43303797184921
20.26127721701131
-5.451071616586892
0.2758899981255122
7.584804844318104
16.43200380359067
-30.27770633326478
5.927178368835067
13.87510984369486
10.47541812073981
-11.1409602194173
26.51402287499857
-0.4810071764941429
-14.89205547896315
12.60298008454412
0.7255708915387713
-17.77762080131716
4.449069824904257
30.74173984457606
-7.244099319019154
-21.05432021655746
-2.443320308997696
12.68725273508974
8.436771389093034
-0.5627446986995921
-20.56127942548589
-2.977060229195526
-1.169184413443229
-17.05149371482056
0.8275809579829231
-5.158061357085781
-1.447919298375221
5.778399696942756
-1.278467406710374
-22.12262178222927
22.89888070644649
0.5022084825258016
-21.65317000695645
-3.425689593233002
3.68625316177463
21.39260643841886
0.3615806886193997
-2.18163091045642
-17.40459696901925
-2.4410569551829
0.04464275860857676
0.03463772871193505
2.361776467424471
-15.52025395111675
12.03072366275139
-11.71769975642294
15.20723004479629
20.11719462996574
-18.43327824022952
22.66239841870831
-24.34631480840278
32.61291379211612
-12.84347381509586
11.27537661730978
0.01246885145273346
17.562994966826
-17.57570485872191
1.924263153058588
1.719629940309245
-1.804035619554845
-1.839857474044224
4.267128624000406
-3.539092372581936
26.01715136769549
-26.74518761910032
22.59517612356478
-23.33109729408674
-4.799101832170861
5.53502300270783
20.59924454705034
5.667005925135187
-7.040989793606042
-19.22526067856026
-14.01313279999394
9.121574069527231
14.10740426055776
-9.215845530086982
18.67178515208114
-10.99266590474218
15.0318070022456
-22.71092624957671
4.270538016296536
1.234508278893411
0.6581503512823299
6.547919023090298
4.674029101520996
6.179198896536136
-17.40114702116808
-2.19668671342939
-10.26456133959362
-6.620752507741941
-20.47088053817281
-15.30080091294043
50.14998206617404
0.02134466592134298
0.2775302299968919
0.3050918814673509
-0.603966777518974
0.6261536630795982
-1.348710569659864
0.4456868724890406
0.276870034010787
22.53377051264866
-28.64735159910059
-8.861269920390249
14.97485100686452
6.677694213308801
-4.845841119973633
2.499212262733827
-4.331065355941638
12.74021568396601
4.621714197227298
6.567903774696421
-23.92983365592748
15.02382302364696
15.67200459242695
-15.76956022873694
-12.94829501085462
12.26854188743867
12.79981805570992
-12.12006493229384
-22.90411917074322
10.66124311199868
12.24363694769573
-21.96054615095366
10.01827686226815
-1.00602572217283
-8.970511490703933
-2.581928619259923
23.82098199743877
-23.64643448844222
-0.4638453561556774
-0.5662405484155717
24.6765203931303
24.44409058071539
-5.403995523373988
6.991819474215791
-26.03191453154536
5.884706064458838
15.25473286582957
-21.30017662208129
0.1607376918005208
-11.2866150677476
13.19270332625673
-19.95137598520817
18.04528772670481
15.72576827426165
29.44343873532546
-46.36766179886955
1.198454789289183
20.58136199365509
19.40282868813476
-32.63274137310315
-16.73338258703642
-0.3276640372059623
21.32817524825107
-11.15754084358037
-21.09182419251033
25.65409152723297
6.595273508899847
19.94837131124463
-1.352757885488982
-18.59577064925244
15.76359649280863
-0.6565307907234499
1.617893756795579
-16.72495945906553
-6.104851406416144
32.37010278654773
-22.50014334578421
26.46307446136005
-15.57373253263919
4.612016773435569
-15.50135870213156
29.98142121322003
11.01301544944761
-38.87061244435302
-2.123824218159434
6.046113398468329
9.47252756783787
8.445946897724475
-23.96458786402395
22.61528869089821
-20.82768589027605
-1.791233254571029
14.8510925225499
8.898884008929912
-10.35128099863898
-13.39869553278104
20.44611231302696
1.919396205239435
-22.31843640954875
-0.04707210872405836
-0.01689436098755124
0.06802719018846601
0.1316749472595859
-0.1828077764988977
-15.85558065793945
10.32436326009926
5.525819538243541
26.73500055513919
-10.64064939564137
-2.08046801473225
-14.01388314476588
-9.598654109535987
-9.940547008710457
19.53935455683986
1.594787235727516
12.20462283561746
-16.92365705050059
3.124246979191661
-23.33921402030869
19.72862827828681
-14.87884580166463
18.48943154384828
-0.2533407076455843
-31.54732557883207
7.779371013171197
24.02129527334693
-16.26864810926226
-12.8223960512861
-8.138613523688536
37.22965768422516
-9.153068312651538
-32.40506358060282
10.63136402031606
30.92676787294618
-2.927214204739901
19.60041212952137
-17.64386818916909
0.970670264384942
11.99529785945422
-13.85815715594079
12.40095761535594
-10.53809831886558
19.60809970236947
0.1930881916345256
-19.80107106721253
6.015619432017913
-6.237766453993728
-4.639181170303473
4.86132819228169
-4.066777545304377
-19.4543583394534
4.509443228242999
-8.499953056757775
10.46632774065547
17.41732813581999
-19.38370281972812
-1.727359776736995
19.57074988456248
-28.32025989302443
10.47686978520026
0.06139193076595321
0.8556312298685066
-0.2908694976352843
8.113490480029363
-7.709021295709595
-12.21354316477269
11.80907398045353
17.83077421510661
-5.814453452196323
16.94075052990893
-28.95707129282156
-1.653206695235337
14.42355036602729
6.663143375895674
-19.43348704667529
-0.01295325535095747
-0.1550577628377981
-17.68813020344784
30.40943710651932
-8.795318005007884
-21.79363237505023
12.20294075735193
18.38600962273645
-26.87120984238126
-2.856443550992498
12.99427080634321
5.70238092109164
5.804743968313514
-20.47408267375737
8.966957784355365
-24.20048839024606
-12.81381547578835
10.14309402366102
0.08862817641484382
-0.07409635663332999
0.09354448439410179
-0.00491630798768724
-0.0612196621719923
-0.2326606368606023
0.1276359153151553
0.1662443836493552
-7.166553797612671
6.513270848665925
-0.08003895328364492
0.7333219020109256
-0.02114055451609741
0.1877483212599087
-0.09493185310958346
-0.01583439885845072
0.07240392987504425
-21.6197156470322
-16.4317730777689
42.17963094016184
-4.128142215357554
0.1375680393210345
-0.09958960815703063
-0.01957471027666947
0.08768338412816465
-11.43798126963643
15.46287868130053
13.41736865505096
-17.44226606670621
10.07652890537717
-10.31377462741583
11.80054122239107
-11.56329550035024
0.9465383051904201
-4.045386538174927
0.004402262205645639
-0.08256837357048737
25.00230865983865
-22.57880286355114
-6.240088251124237
3.816582454844637
15.58613725206508
-13.21057808989768
-5.663143389345615
3.287584226710334
9.63072398096454
15.53765560803076
-40.68863354010647
-0.1388631764641325
0.02464011136279887
-0.02975517243378842
-0.09066179336491742
-5.587498298105801
0.9284695222525411
-15.5714200834285
4.549401941746818
-16.80034017718389
12.71196441941053
-0.4610261840076699
-8.673230378130629
1.511315942928992
-10.37969776155071
17.5416121967526
-8.239356063663967
-12.75964586270027
-16.4622726954813
37.46127462185902
3.533991233829759
-6.673367295862512
16.48216650711485
-13.3427904452352
-22.58647771142678
29.8176351692605
-7.231357063365494
-11.13358462875856
14.1692486772727
31.45205972568669
-34.48772377412374
24.15593395669861
-17.52162499259502
-9.792167053242853
3.157858089168747
0.007248468981418818
-0.09538672618936928
-11.96442934154748
-5.30502683782994
-5.188947440013215
-14.20651775758378
24.20453805544214
-17.38721878324385
7.389198485338267
-0.03511561028549171
-0.04140139519147119
-0.06487078272467134
-6.057018368217161
-0.07984294867738244
5.403965258389035
0.732896058462607
0.01186301442030871
-0.03177913720509563
0.1330701420797288
8.476991953193606
-12.85134332231008
7.849820064863899
-3.475468695789159
-1.056989870307718
-14.61386816380158
-3.730077713252263
10.66996296465298
-4.274352907579257
-13.62390699076219
7.228296933499028
2.513199352319623
-2.795865509904109
20.96238839729634
-20.67972223969965
0.04098668873777468
1.104388002480249
25.57069876155414
-22.14568617761468
-4.529400586252838
-24.54919081176455
6.481454587636194
0.2299488629835104
17.83778736115289
0.7220743603363579
24.01851656319859
-24.74975648853872
0.1074359154577407
0.1579734097549538
-8.409419830291974
11.52629739282016
20.22337371823874
-0.6517795597916872
13.26832096483959
-24.57179914780709
11.95525774277093
10.32765792760789
-0.7414096480447381
-2.046502797142355
-7.539745482415656
-20.4547844715785
7.653790830160557
4.30104058464903
-2.736036348930549
-0.9965654738470719
20.99317886842634
-17.26057704561217
11.78369816515003
6.345257077187783
-18.12790974548008
-0.4691388597649599
0.01042784102618632
0.5107847994555599
-0.05207378078575988
15.22721116793824
-9.335038347288542
9.671165046629504
0.977235494711973
0.1417459840086563
-0.006326455019935799
-1.112655024152646
1.225581772252384
27.40683433270424
0.7422865585696192
4.223236174155866
-1.244253753646427
9.327276418732604
-12.30625883918198
-4.01018473511773
-8.86678024305113
-0.4645470580662589
0.889998695571545
5.200441306381565
14.21476177930107
-20.30520178123117
-0.4309649279567968
1.455880325263464
0.9407829975699394
-1.965698395124083
17.600892232854
4.729104351664159
7.559688319308356
15.71968079318011
-19.77336123638267
-3.506007876109202
-3.69565925718861
-0.373754726522698
3.314580189291452
0.7548337944041976
-1.375435060909722
-15.07171348227037
16.44726415448425
1.022345990215259
-11.05699568849013
-7.163552654262743
-0.5846286520508311
-7.864482951449695
12.50708587093901
-4.057974267406071
14.48419189087656
-9.867384395016277
-5.20143614788679
4.984078344581246
0.192722462004342
-7.490110898515715
2.313310091885016
-0.06817944088713192
-0.000312449857963753
0.03278654144988068
0.03570534928321788
-15.88264130112134
-3.027587170390295
18.17913698161996
0.7310914899041181
21.17284039441607
-22.24083474641931
2.321653988860488
-1.253659636840369
10.95400246737647
-6.637283876538313
10.16747330003755
-0.47374706546493
0.3725517606645499
0.09806780760693311
0.003127497012047619
24.16572542687098
-5.666224900623189
-0.9864592510207217
-17.51304127520239
5.026859291607647
19.14810158244777
-0.998759036095439
-23.17620183783375
21.93164311833404
-12.22603687573045
-0.9447236529215423
-8.760882589658648
1.253648514435762
-0.20379419923336
-0.9763150002073852
-0.07353931508126597
20.9607403438999
-13.36342940926036
4.157432121105525
-11.7547430557165
22.85370585691447
4.232655889172683
-9.352129722861193
-17.73423202321503
-16.93322272373341
-15.4793706571395
30.70982324062888
1.70277014020377
0.3269583624828764
-1.010317925883473
0.548491146412466
0.1348684168850646
13.69585502472525
31.43061074606166
21.79745446588247
-3.365513111463721
-12.99798950980427
-5.433951844585831
0.3720778950244515
16.56230662788135
-18.42629242101768
1.491907898207376
-31.34890617018551
15.49372894725576
8.200412002289429
7.654765220721414
-20.22993495915996
-25.0964755018029
25.91529059950372
19.4111198614578
-2.353862655381848
-8.120815198296571
19.45714301249262
-8.982465158811383
25.17090377093951
-12.39075894578654
-15.13400748051749
17.53766404895322
-0.5817777785689866
8.21501750057765
-2.617632289977347
6.622795439331418
13.53250089963172
30.49487357418096
-39.18527398437967
-14.36687211636823
-26.32313238843186
-7.583989460339538
29.69817702678473
4.208944822006633
-13.48739131671693
16.64701657254642
21.48074533889966
-24.64037059462896
29.02037086102324
-34.68262985574884
20.27384385143369
-14.61158485662181
-18.52069232989273
-8.323805675918644
22.97676901188864
3.867728994222889
11.49140377176927
-29.63973203727979
4.660936949014095
6.454921792082675
-10.85819284071097
7.001833760454885
-2.598562712284101
32.96436278858045
9.611935837463109
-1.66070007937974
36.35543573473052
-13.24659498326653
-21.44814067204369
23.20690822991531
-11.90797191412726
-11.30475958485911
-16.00494910869763
19.11739143268395
-3.060885737561711
-16.05656778771426
-1.056421716965445
0.5604311738755099
-0.2632204576987652
0.7592110008352757
-10.95024625000818
-18.67889411358927
6.142955761006308
23.48618460252248
0.1601168939275784
-0.1764212301386957
26.07668004495578
-8.890283050294389
-3.899135416137013
-13.28726157855263
12.45452636915375
9.729747056831583
-10.69496512514489
-11.28872885119899
15.81677660781419
-21.38952800273407
16.86148024629132
5.437195066974448
2.849020492329449
19.02196725632276
-27.3081828155891
0.2893186022557282
-0.40348458882759
0.3184268174633428
-0.20426083102452
22.19216185880988
8.893385515066832
-25.64835230676891
22.41957857188125
-18.14632109074412
11.99399874673586
-16.26725622785892
32.32930122608502
1.089781348654053
-9.542145447111745
-23.87693712766679
2.440443157025977
-27.7835956974211
26.51137851860594
-1.168225978143422
-12.24291312847255
24.3995802517854
-18.88125252479631
6.724585401468647
-17.18679921731774
11.9038085883114
-4.827702811801674
12.70821562917637
-30.64052537580342
22.50230562090647
-4.569995874294135
4.408134628762549
-5.169800541899852
-21.19533192611257
-32.78485487646883
26.65164406071826
-3.6098767578489
9.743087573615432
-4.558534091141675
-22.27314600019237
13.57534697982077
13.25633311151757
14.21271289935036
-11.91949352373589
-5.806294357253835
3.513074981642013
-0.2928833186601411
-0.7210837290684113
0.570903294797106
-23.79980152488605
26.12526588212024
-35.11031923367917
21.71131356203723
-2.200668450737918
7.140998949432671
-2.900706965085039
27.99682806424778
-2.613556500750909
-22.4825645983913
-21.95919764290662
24.56650390452123
5.383522675992024
-7.990828937578105
17.11377265794851
22.3006055883574
-28.96129562961329
-10.45308261672041
32.330523177919
-30.13940977035777
3.543642659308603
-5.73475606691136
24.29353735033198
-14.49181270456149
-13.99292230184929
4.191197656096681
-34.39309909156893
12.18814020185249
32.91099670184377
-10.70603781207989
-24.23422969184274
12.35210950846905
-22.51097890816023
26.8607641366029
-13.16026354885753
0.3046238902424129
20.12990024071053
1.622124044889937
-22.05664817584803
-5.871302008027882