/*--------------------------------*- C++ -*----------------------------------*\
| =========                 |                                                 |
| \\      /  F ield         | OpenFOAM: The Open Source CFD Toolbox           |
|  \\    /   O peration     | Version:  v1906                                 |
|   \\  /    A nd           | Web:      www.OpenFOAM.com                      |
|    \\/     M anipulation  |                                                 |
\*---------------------------------------------------------------------------*/
FoamFile
{
    version     2.0;
    format      ascii;
    class       volVectorField;
    location    "1.2";
    object      U;
}
// * * * * * * * * * * * * * * * * * * * * * * * * * * * * * * * * * * * * * //

dimensions      [0 1 -1 0 0 0 0];


internalField   nonuniform List<vector> 
19632
(
(5.018542028308071 0.006160858384844557 -0.01456525438991371)
(4.999964577992755 -0.007479512160481244 0.0003657175730386177)
(5.00071117084274 0.0005670697144959353 -0.000484509462682224)
(5.115150165242838 -0.00106706277137099 -0.1193855543760049)
(5.000747865928605 0.0009282095481664076 0.002085827283767501)
(5.000605415982666 0.0009911590877157463 -9.886367571417731e-06)
(5.003172144055462 -0.002283700389219095 0.007137105971725568)
(5.00039714537692 0.0006861744400682432 0.000595806181628534)
(5.000060484176099 -0.003162698689016865 0.0294661730765592)
(5.057725222944484 0.004509773829593515 -0.1032313199135953)
(5.133695814242327 0.2807205659629978 0.2051871433874601)
(5.002202232475968 0.00477468467215891 0.0002877011300788859)
(5.000586359702043 -0.0008908277626556573 0.0001833462045390864)
(5.001800664841035 -0.000972826840013453 -0.0001084602036390823)
(5.017093891975249 -0.02448449618461522 0.01342102075131969)
(4.987146167682461 0.0008539590003492923 -0.001204706212706803)
(4.99926530859054 -0.0005163557878532056 -0.001323706669382276)
(5.006540889049228 0.009026377840831021 0.02228104068510573)
(4.999940004573757 -0.0002513806405744178 8.584905058217893e-05)
(5.001693547484679 -0.006187259493639476 -0.0003715974660164446)
(5.041130626690093 -0.01650413532202116 0.01473513479156847)
(5.268349192796314 0.007738673856919454 -0.1087158794685489)
(4.963562412498272 0.008995023618863885 -0.03798987914370473)
(5.001916573086558 -0.00383583183095642 -0.0001456487438950069)
(5.000376633641237 -0.003017219031581743 0.0003514247560341984)
(5.000404995249823 0.0007297253993821487 -6.635709429434236e-05)
(5.000833796124766 0.001679310138488499 0.0002339801823970606)
(5.169117502259922 0.4936574807935558 -0.7232531457185388)
(5.027136199168006 -0.01965930146758335 -0.009716184146590652)
(5.000780322501821 -0.001161741489554035 -0.0004058895832584308)
(5.000642862055876 -9.826384946157605e-05 0.0010372522501117)
(4.999569471238448 -0.003767712853949785 -0.008085060035670054)
(5.064858650160186 0.001212601429928885 -0.06067317448841269)
(5.084032931753523 0.2864235936363996 -0.2002542583108647)
(5.001706629994755 0.0004036599404399207 -0.00206072896854844)
(5.000754988853283 -0.0007925820757328551 0.0001159985590680563)
(5.001327924605549 0.004694344791291945 -0.004252305151192035)
(5.000675111992535 0.001570454614689998 -1.62191162146368e-05)
(4.999959209221261 -0.0001883931561140984 -7.26624125765222e-05)
(5.023310236893048 -0.00974222933826191 0.000483086622239629)
(5.00024536635486 0.0003856372260157467 0.001261835525271821)
(5.001111852475538 -0.003716245431378416 0.003408231924213305)
(5.001259153174224 -0.003456420859255623 0.003354902280072492)
(5.107937136506705 -0.2319829625821531 -0.09175274928984656)
(4.998935152237442 -0.0008481724351033244 -0.0009309921564634434)
(5.000159248416717 0.000331162012483027 -0.0001378620835566839)
(5.00027892103024 -0.0002270422964302076 -0.0001752227814786494)
(5.000652490629539 -7.418190976279064e-05 -0.0002652604024379649)
(4.996681688101972 -0.003537749883459457 0.002867450178655511)
(5.001850467648253 -0.00404326939926031 0.003196512133502548)
(5.000343424333875 -0.001934629129501506 -0.006503473396729121)
(5.003747282614934 -0.01515424961088746 0.002162292154496871)
(4.99941630138833 0.0001584315480546332 0.002213644956385622)
(5.002772833209445 0.003040761527926564 -0.001153648736050446)
(5.000106608221082 -0.001509125036457003 -0.001028002701517801)
(5.000132253262704 -0.01941145557638811 4.566914378360111e-05)
(5.00109528869619 -0.002252805072906178 -0.008623416888454355)
(5.00180414552635 -0.005393319209616296 -0.001375141872456208)
(5.002444315592257 -0.0005421211319133505 0.001736493832927001)
(5.015046154404065 -0.0683780587395625 0.1027569845420065)
(5.000579532991736 -0.008472324410511078 -1.073987762041897e-05)
(5.000255478594151 -0.0001797022118939091 0.0004142212447319504)
(4.792739357510352 0.4192438224792626 0.04983506150982135)
(4.360408736076311 0.308225247229459 -0.07021428099060407)
(5.000707807152514 7.657544108148235e-05 -0.000162314701609929)
(5.112709019014896 -0.08662071515155599 -0.6559935295914199)
(5.273772691316017 -0.152478691432021 0.1599731396766621)
(5.00120830896278 -0.0002684023914765989 -0.0002990990387371169)
(5.000949501833504 0.001046150138953503 -0.0009583595730450265)
(5.002403468777249 -0.003404371020983306 0.002167105016872334)
(5.015028464880104 -0.001776753821715654 -0.001082352827685336)
(5.001027813555424 -3.551729676659756e-05 -0.0004971293424601622)
(5.00071008521796 -0.0006888599580646267 -0.0001894296783883952)
(5.00045352149863 0.002215953295893787 -0.001660996761551307)
(5.000444150997287 -4.603929144411101e-06 4.426717362315445e-05)
(5.000205209655591 -0.0005552108090180142 1.507386457190475e-05)
(5.000248953777034 0.0002048506640056498 0.0001311823674129452)
(4.815792135372154 0.1226002715880991 0.001632163422586355)
(5.093661252359723 0.02607052490108384 -0.04254029084693093)
(5.033326038722366 -0.003669776765213756 0.01641117945236738)
(5.346332748208952 0.1214461968537263 0.02275802573861276)
(4.989985570872882 0.4768972574873015 0.2299183743668867)
(5.002007127629725 -0.0002273159324960445 -0.0002231353407317051)
(5.000775718108189 -0.0004722507292738132 0.000390537632286128)
(4.998627215505506 0.001876093490650184 0.001175383277980565)
(5.004173869533985 0.01132086381866794 -0.005575740873907643)
(5.001120674024003 0.006288265236628157 9.57263345347447e-05)
(5.000606153914904 0.0009466491749785281 -8.524239413095645e-05)
(4.999391636866153 0.002361074637376793 -0.004399609793601554)
(4.998870031806927 0.004387621290299009 -0.005728052801530052)
(5.03217118237991 0.006842352633043444 -0.03605448189969403)
(4.99999200397541 -0.01066387378154609 0.0005136717261970129)
(4.99864583218111 -0.005097858574620723 -0.004217433931121361)
(5.024681646350381 0.004518131838476439 0.02262331405460397)
(5.000551857306369 -0.002300009540238896 -0.0004532807547827179)
(5.00248096708448 0.001416644950378872 -0.005329855781291015)
(5.003290789748416 -0.001393889957713405 0.001155134458568403)
(5.001122305061651 -0.0006990056492670897 -5.113997092098426e-05)
(5.000358742346185 -0.001647747203203263 -0.001281767195636285)
(5.000118175529738 -0.003664380141065002 0.001193381713595112)
(4.449799039917405 0.3792895122527114 0.3380686167033027)
(5.000232182758856 -0.001572943981109981 -0.001242386011877048)
(5.013323224136875 -0.008725890861883251 -0.0009772002139166597)
(5.000223875872418 0.003245652122775144 -0.001544093963287047)
(5.017359291561416 0.0891515377326091 0.215299901495506)
(5.069088523035201 0.02983099752607437 -0.04579661002671705)
(4.165325773872315 -0.8480707211367989 0.1738249176171255)
(5.039860350905644 -0.01342699341279384 0.01639558900683438)
(4.999860648135854 -0.002346788316350787 0.0007158283341663739)
(5.002189065091925 0.003310180554545948 -0.003878724025725624)
(4.839823715792837 0.7689146429415513 -0.1580913095520414)
(4.998791487731189 0.002092122816199184 0.0006520441628747347)
(5.000820529898903 0.001336942489379963 -0.002215752727179296)
(5.147679423283005 0.05586331890800653 0.1463198299895552)
(5.001058179970685 -0.004046566852774998 0.000473326951993024)
(5.02282730648715 -0.0463628869995799 0.03956166230259301)
(5.038277275308165 0.01322973718575532 -0.7951303938894532)
(5.062062177469604 0.1911068233669529 -0.1142720786298805)
(5.000489981399725 -0.002150840938874414 0.0009830562311371369)
(4.999872714021405 0.005989571082011796 -0.002717304927172659)
(4.999455625680242 -0.00541227077050495 0.0004573438021165978)
(5.003665977134971 -0.0009069651682299233 -0.001854665272812952)
(5.000453638597024 -0.0008839361912620041 0.0004223400987639929)
(5.000437089216731 0.0001190521820277717 -0.0001926983756695757)
(5.101453978202294 -0.1265401414109938 -0.01011422464851953)
(5.063598035851043 0.008740720995802167 -0.0246591662848365)
(5.000629225352205 0.0004355209209388955 -0.001353022679986971)
(5.00761246377937 -0.001162863323812812 -0.0007112896580460603)
(5.002052007126571 0.001374195900845517 8.609863817526809e-06)
(5.000099026287812 0.0007237300945585458 0.0005297941706223798)
(5.000642316027439 -0.001205867776386521 0.0002304799279559747)
(5.00035369887173 -0.0008789734222389635 0.0007850467754967065)
(5.05033040883301 -0.02014183618912233 -0.006581048864728219)
(5.000425826581599 0.0003824278029198518 -8.814978217934058e-05)
(5.011917014949803 -5.497069668358221e-05 0.001268223170589449)
(5.022509359737429 -0.01098234139367709 -0.006048428164004496)
(5.006569445675258 -0.002021273344990257 -0.003019707149655008)
(5.002058964573278 0.002920304845567156 -0.002090476162823794)
(5.000869612653709 -0.001069506820546082 -0.0005498140038937409)
(5.003986957465981 -0.008383252689575547 -0.007486686488873795)
(4.423896621676733 -0.05110216425792919 0.2528819979847425)
(4.88564072600875 0.7083437345352455 -0.2647332768595861)
(5.178440385384612 0.6377273623770167 -0.1137244628626855)
(4.168287360258575 0.4371013972270169 0.003002876291832227)
(2.996198079029323 -0.7505105455734707 -0.8338678052382125)
(5.00029030194547 0.00015187223809282 -5.326161023904247e-05)
(4.997871567955534 -0.001615052331855651 -0.002549112957821578)
(4.964758691753652 -0.02242406135365965 0.03420081363325738)
(5.017383675156877 0.001989884099047825 -0.001292240422535062)
(4.999699675375679 7.750243742304415e-05 -0.0003229247894653156)
(5.001411330940822 -0.001985742491974088 0.001473726307811569)
(5.001407886329237 -0.002863656933623929 0.003875700895832794)
(5.001904564496046 -0.0006015003523140909 0.002067860260659373)
(5.001248693035199 -0.002853917251975566 -0.0005789074327604791)
(4.992734291423665 -0.0130785056368684 -0.003708561742679614)
(5.002288888072997 -0.001958418229436342 0.002864606770741673)
(5.000383271951118 0.0003104212074883983 -3.58337081084994e-05)
(5.000718190540272 -0.001716183819147661 0.0007052674964451904)
(5.004343313118197 -0.007976070208449641 -0.0008989201550547377)
(5.081446481758755 -0.07557030704880102 -0.4223936081972683)
(5.060599009863886 0.1547947990913643 0.3308238651910317)
(5.051056831563685 0.1777311157979289 0.117923588774171)
(4.466831148471163 0.8629368691113732 0.1932363107161714)
(5.21922706232344 0.3092555439524784 -0.1379331691821097)
(5.00141774691781 -0.0001877756328694454 0.004786866782008652)
(5.001382906288551 -0.002289045561740659 0.0002947408576429179)
(4.999532335903451 -0.0006837096520800499 -0.001204385398397443)
(5.005159570103798 0.01944437965391839 -0.02577134043100775)
(5.091319709455748 0.3923249100378231 -0.2041650651046405)
(5.001793726980077 0.0008408736785964371 -0.003143345930275643)
(4.999529561462508 -0.00158215260699423 -0.003708344924484316)
(5.012133558990421 -0.004423491913631862 -0.00216452205164084)
(5.004915101954042 0.009449080565270156 0.00487033380876064)
(5.000567188138115 -0.000647302390700788 -0.0003629834369558009)
(5.00018180617787 -9.560259474718997e-05 -0.0001909402308694427)
(4.872700182889324 -0.02879351696786666 -0.005367941008186026)
(5.000805749460064 0.0004398132427103648 1.655136414535339e-05)
(5.01398498445815 -0.003480905509829627 0.0009851703582727895)
(5.000944432087756 -2.383969028632396e-06 -0.0001375757561594743)
(5.000602132329789 -0.0004424437057287864 -0.0004967730336352332)
(5.000075672588355 0.0001638743804611031 0.0003471572739074705)
(5.000683264740928 -0.0001619577322341419 -0.0003205707125015058)
(5.000760477191238 -0.0002842708686871502 -0.0001314132309888357)
(4.999534657508999 -0.0007514955135286734 -0.005016593059019355)
(5.001263099147121 -0.00441480067338542 -0.0002864659849222829)
(5.00047182429387 0.0001424745028800156 -3.789116918811026e-05)
(5.007794896263509 -0.00150237278302322 -0.000860679085767842)
(5.000892679843355 -0.0004992593586353552 -0.0003214003950286506)
(4.999870260354057 -0.0003203031075391125 -0.0001173601489171699)
(5.000717551513803 -7.3473829115916e-05 -0.0001151708856232604)
(4.999258129519578 0.0003833897302428678 -0.0006408024181639659)
(5.02557010592759 -0.01128261413202646 -0.003408198522505928)
(5.028139168384853 -0.03239751713458176 -0.004503068302623197)
(5.002019127916364 -0.002057283581710503 0.02420782375117029)
(5.000738189203271 0.001539358400726125 0.0004545847976221724)
(5.000738430185066 0.0006361959506956297 -0.0003053992333703121)
(5.009330878184115 3.670645106821483e-05 -0.001443495928123095)
(5.023920935791326 -0.04826892099096737 0.1127351438419324)
(5.001697707296483 -0.0007747132770659569 0.0006356843516337526)
(4.968543311996966 0.008964312156191555 -0.0003356775151805904)
(5.000783429110779 -0.007703782861450736 0.0008324785915059818)
(5.008939403469888 -0.01024033954956165 0.001336073177679926)
(5.000378054798351 -0.0003618230320214853 0.0002358866542470765)
(5.000485954580788 0.00120514160866998 -0.00220688686368745)
(4.999119494861734 -0.001266012301939193 0.002181034007962017)
(5.003168403532614 -0.004294781099334385 0.01674732720845514)
(4.999891274143243 -0.0007940880801482229 0.0005677373083144165)
(5.001549295742307 -0.003136383457489823 -0.003645896743526517)
(4.999671503197962 -0.0008719344664689014 0.00100573712718602)
(5.000794965729773 -0.0002860605584435046 -0.0001189660783471429)
(4.99577405864823 -0.008599154362220116 -0.004177645330760206)
(5.000599266287831 0.0004241070610799096 -9.605675233591753e-05)
(5.000087933172867 0.0001206071859585252 -3.830451652750908e-05)
(5.000701156367905 0.001571223148617283 -0.00678363912762273)
(5.000348958647932 0.001199093587419338 0.007759328809764366)
(4.9982285218556 0.0004265408979756876 0.003304530815060094)
(5.003064024824446 -0.002017243845272102 -0.00504385478707086)
(5.000005429739809 0.004584994179745118 0.0009302776467332887)
(5.000189399715152 0.0003126303994693586 0.0004906008697237667)
(5.005972298660436 -0.003006042220571528 -0.007412389592001186)
(5.002347858275833 0.02765391839519011 -0.01615314001133247)
(4.997422266239377 0.002955433674203749 0.003470823767119105)
(5.000196548728217 -0.0006046135495345164 0.000650374143599847)
(5.000363471959535 -8.754734549908497e-05 2.806126442299208e-05)
(4.999546839910915 -0.006129107363252891 -0.003352035526529564)
(4.999829870164898 0.001733528253920852 0.0003541536589579978)
(5.001797695940902 -0.000850500646170044 -0.001944537019956834)
(4.99928314823555 -0.002537096578422054 -0.003240423682157056)
(5.002397483831562 -0.0004883373376748677 -0.001800030746943676)
(5.001690184673336 -0.0004679731022125594 7.630113455681781e-05)
(4.998792421369586 -0.005422070151152781 0.002178841309976311)
(5.002219826616089 -9.498167582733815e-05 -0.0002616496251748592)
(4.999320236657278 -0.0002779038119529007 -0.000253495247470378)
(5.001827495140188 -0.0001557159219296673 -0.0002697131407098558)
(5.000020445055956 -0.00697260193719523 0.002635109314005555)
(4.99860165251387 -0.0006044226493736698 0.0002771483260617825)
(5.000458481436381 -0.0004637441263453217 -0.0002100811361723259)
(4.944631560395885 -0.01075325758960347 0.01139685385966699)
(5.016265904722015 -0.008719762291107649 0.002165433810233536)
(5.000878935323169 0.0005192652655756802 -0.005187939361202392)
(5.00074123628161 0.002169160079314452 0.001086858147253455)
(5.16723149950082 -0.00670903892581798 0.01027610065957434)
(5.019352126954909 -0.01278824883437381 -0.004199007724225349)
(5.000236512222964 0.00202547311047251 0.001832487696069924)
(5.000966194529425 -0.0004428131557890183 -0.0002076448638711045)
(4.999860036975867 -0.0002610676082210851 0.002531376233083674)
(5.001002829449384 -0.0069961015636239 -0.0003459684418248682)
(5.023157668213747 -0.006759880795554841 0.004906190244755233)
(5.000427058179801 0.0002044676663056401 -0.0002523129496845434)
(4.99950030947065 -0.0002119568046645238 0.0007142654550829199)
(5.000554431574719 0.0002527321714566668 -0.0001676541754184382)
(5.000274743761116 -0.0002812685617627335 -0.0001908391245852245)
(4.999628827754464 -0.0005893175442951269 -0.0008088927635807134)
(5.010980791238969 -0.006467075243567991 -0.001731289550356426)
(5.000435054962617 -0.00396490941765378 -0.00270512213065073)
(4.988842965992418 -0.01144383542875211 0.001779710897995802)
(5.000339519080935 -0.0008363833644502775 1.1380578000343e-05)
(5.008740021208409 0.04197947999625626 0.0184723549363401)
(5.03361134576698 -0.02512049558324094 0.006706517660552017)
(4.999539147834534 -0.001709244288505048 -0.001516881940233449)
(4.985464426228333 -0.01042421974436076 -0.008678360551472763)
(5.000861307702519 -0.001207037429074363 -0.004682549555924567)
(5.00118562783488 0.002685827527683538 0.002969328387388834)
(5.001221602215958 -0.0004010638389542272 -0.0001218685726979424)
(4.998960813371277 0.0005192631573116867 0.01188373621472281)
(5.00118436100777 -0.0003571338235809649 -0.0001705274487833393)
(5.001240998387139 -0.0005337263545743465 -8.380152590310617e-05)
(5.00070394758491 0.00412608779661775 -0.003329240345572466)
(5.000936407225364 -0.0005080332251637755 8.478906656866146e-05)
(4.999906010445603 -0.0003466805106747997 -0.0006674177117572529)
(5.001419061086344 -0.0003248096379825218 -0.0001036076431286242)
(4.999945748947942 0.0006524672495787945 0.0009227833095513467)
(5.001151859648793 -0.003001269669778317 0.0001883469869320287)
(5.000718283511113 -2.523304720904096e-05 -0.0002469176058772407)
(5.001697412577507 0.001726398243145354 -0.001296413284110726)
(4.998796688887343 -1.561900921951355e-05 0.0004925105858113563)
(5.003886796925076 -0.003679797689208672 -0.004058116673222399)
(5.000823598503028 0.001413186216500753 -0.00536061175620446)
(5.00039986194852 0.0002236772997374469 0.0001064307579502417)
(4.998766491722061 0.02373465185826539 -0.02175821797056325)
(5.000695321157679 0.000922811730827901 0.0008628986108874581)
(5.000335241059535 0.002306422115994571 0.02139070570790557)
(5.001121709748962 -0.003131966887831457 0.001313153861128679)
(5.000994747419161 -0.0002534651491154834 -0.0004606908063872954)
(4.272586036794646 1.8864166268499 0.467809883346116)
(5.002422821521334 0.000931200455491887 0.01334763117730573)
(5.001062295479904 -0.001899006085189171 -0.00534284242910941)
(4.999056227931776 -0.007156439411514442 0.02945350612610649)
(5.000363525972004 -0.001930951103356871 0.003673099930949811)
(5.000531049167273 -0.004388551201368419 6.862382878005546e-05)
(5.000932804427665 -0.000125239863920201 -0.000318026816786357)
(4.999716067375921 0.001245655798970804 0.002361662120716182)
(4.999847267723702 -0.0005418912913809315 0.0002139580104448612)
(4.999419814232761 -0.000430604163505487 4.505221478873008e-05)
(4.999846841088744 -0.0003048504816190569 -0.002256548545413796)
(5.000203527458339 -0.0003444763889545973 0.005312966131852882)
(5.00177396716173 -0.0003454084515272336 0.0009678328424091157)
(5.007918899631258 0.00340102591077735 0.01153642543470637)
(4.999954925104517 -9.988464416434445e-05 0.0002824687462129075)
(4.999286982763481 -0.0008116413637449107 0.0001644208569018806)
(5.032729382737622 -0.02941338479185327 0.003295951877107744)
(5.001711867544634 -0.001243883544562767 0.0004593287026704247)
(4.999921309010603 -0.001328311393718776 0.0005980876965634446)
(5.000424928548336 -5.07619294326059e-05 -0.0001683977613723754)
(5.00911682261799 0.3189831700687262 -0.3187422576259279)
(5.001715125737235 -0.004198558476748992 0.003200364429854227)
(5.000862257836467 -0.0005488674351006063 -0.0005635903913855029)
(5.00070894782225 6.553203927700894e-05 4.517735263489941e-05)
(5.000117444517365 0.000147023587076114 -0.0006272209424037794)
(5.000548589881546 -1.991365003732601e-05 -0.0003055522391465324)
(4.404801800341829 0.1991135233817583 -0.2486575909334092)
(3.962677774837795 -0.08709026341328571 -0.2864993797222548)
(4.98956986572345 -0.03598173901695519 0.08832987717061028)
(4.99723270640534 -0.008511910144007895 -0.006297046056513149)
(4.92917713811263 0.2979345680323685 -0.5042346330269417)
(4.096178546973484 -0.200376677987897 -0.3036226522491097)
(4.122972898095552 -0.2293543162349181 0.1573564680022248)
(4.999923842164193 -0.000383078368299551 0.0003438897757597263)
(5.16723525754201 -0.08013285469116137 0.646347640474521)
(4.924353636176732 -0.04630021563433765 0.4667195655445118)
(4.999466760094798 -0.0008735515026021852 0.0006605759728606144)
(5.001786667712066 0.002579852580010701 -0.0003687719505674236)
(5.104886870842584 -0.01654593405872215 -0.1579629168226542)
(3.165645424081383 1.290992615090288 -0.4993173752684855)
(5.000536346304903 -0.0005028162592843865 -5.326478275674326e-05)
(5.001193884968149 -0.007254258959185252 -0.002878105549079155)
(5.00058238817117 0.007679079198227684 0.004099943290761106)
(4.692890733822426 0.7329024717022961 -0.3270780688774876)
(4.758914356415703 0.504863696787871 0.1249722217672184)
(4.953024698327357 -0.01391763040618826 -0.004076509299541908)
(5.000641841143838 0.001647909332839239 -0.00029272239719904)
(5.000289413052636 0.0003018947268471749 -0.0003238417488554661)
(5.000258281445719 -0.0003199752610011281 -0.0004322901461788471)
(4.998377482995737 -0.005335622077284993 -0.009437006949038016)
(5.00148729640189 -0.000631506376368743 -0.002657008429135757)
(5.000642166302856 0.009986871628140307 0.0013661838262245)
(4.997292999496815 -0.003393090019757566 0.002152945972826412)
(5.181517258855652 0.09709834150925449 -0.4738424479309744)
(4.98188755806748 -0.002734212481934829 0.0003186930648873307)
(3.896618077329923 1.012362258955626 -0.5042024145667137)
(5.000687793105179 -0.002351758828302465 0.001124615107167153)
(2.910054763778166 0.7062953723748325 0.3640219270180319)
(4.134155555415768 0.1659085612124457 0.3428285910438806)
(5.005925519479247 -0.002803779795096998 -0.001799816757517481)
(4.3542731933745 0.220252129221097 -0.1880754784540032)
(5.004959154236511 -0.001831903109741953 -0.0002527115614133496)
(4.729243227427641 0.01519111338075438 -0.07185281431688724)
(5.002796052893396 -0.01074145681057267 0.004697846020414034)
(5.013606717124379 0.01630070116184119 -0.003268193657605055)
(3.492733592098546 0.3892335062970598 -0.03446817847396472)
(5.00163286344838 -0.003393822197294671 0.0009934016873978625)
(5.000420749658323 -0.0009526645888436045 -7.026213680627642e-06)
(5.002120267739663 0.003115608983054697 0.02238511977499542)
(4.136317488334744 -0.4793133423533127 0.056484526805008)
(4.997006515787752 -0.004942407540331072 0.0003309811135391466)
(5.000388949678912 -8.566470910935798e-05 0.0003725030759478163)
(5.000337328633287 -0.0003505866781196517 0.0001567653907504798)
(5.000341843966508 -0.00115282375350908 -0.0002011176941397836)
(5.001400503664467 -0.0003270369236838142 -0.0002080378255843101)
(5.000627143076991 -0.006361177736518756 0.01778262376132515)
(5.02423366428847 0.05382901691415343 0.001565038749227146)
(5.000236439856663 0.0002450847159974067 0.00023273769332018)
(5.026899668961054 -0.01987092727714554 -0.002836269584356512)
(5.002226538540393 -0.000637888861605761 -0.00179493572219192)
(5.024310396507025 0.007058010704954694 0.006825855143539645)
(4.690335960702462 0.02255274529639173 -0.01939748091206126)
(5.000675509953663 -0.0006521359347437906 7.769995632135962e-05)
(5.026832728552686 -0.0163647753737774 0.001985353769996451)
(4.998809618193246 -0.001943401035960057 0.000121573813481066)
(5.032590147260409 -0.0002151846497051188 0.01837345572225624)
(5.015175283801835 -0.01436163688342553 0.004463903595744965)
(5.000579653622892 -0.002061957565689842 0.01019258301301697)
(4.934387529968933 -0.03556373308316128 -0.01330949553444625)
(5.000940951644784 -0.001689980613435263 0.0006398391964444039)
(5.000956627792756 -0.00239992792552573 0.0005664404778728532)
(5.006929310483955 -0.001978704060134142 -0.001651805213729575)
(3.857895044836212 0.03117369954002546 1.357500066527495)
(5.000430002717857 0.0003240938947373949 -1.288964400268524e-05)
(5.000026393384569 0.0004057094130661577 0.0001516557511933439)
(5.000859328979163 -0.001956281508075291 0.0008256469637024717)
(5.002653507256222 0.02928633077060012 -0.05490362675721862)
(5.000825650245037 -0.0004653434194570068 8.967062700133426e-05)
(5.001506639990027 -0.0007643245538843381 -0.002425205184512054)
(5.000436735372035 -0.0002441912027741829 -0.0002177277916878386)
(5.032461278206989 -0.01465756722720187 -0.005293103761264982)
(5.000835316809993 -0.0006460490511746856 -8.641056438243806e-05)
(5.000308081834992 -0.0005936414354836911 0.0003960826181147416)
(5.000080226014225 -0.0009964099655752989 0.001880939791160557)
(5.037258588854331 -0.01490631237829968 -0.003348581705397106)
(5.000795700852118 -0.0006039664412414291 -0.0001024039420726963)
(5.000883905409517 -0.0004355126942247753 -0.0002197009536069529)
(5.003818740078261 -0.004325265909606144 -0.001336442545594038)
(5.001441683420879 -0.002114138330479093 -0.0004076460284905926)
(4.999940947824973 -0.0004375908504361899 0.0004165564511413401)
(5.000881200812539 -0.001291754587277742 4.591614606823466e-05)
(5.001035610061324 -0.001374403878768365 0.0001594662793474481)
(5.000999009963563 -0.001223282067711077 0.0002943206893898288)
(5.000823811733681 -0.00143076831442604 0.0002214927248644897)
(5.000204042289399 0.0002317105398011546 4.063773128256854e-05)
(5.00048742960167 -0.0007867163841489598 0.000195460493705079)
(5.0017326728884 -0.0009928780433377756 -0.002699104027124027)
(5.001531319279627 -0.001320107459923394 -0.001158146709721522)
(4.975811599453203 0.008223488047639591 -0.002864862631460553)
(5.001646137346027 -0.0009832789273838789 -0.003116199936216451)
(5.009268993270967 -0.001631004083380015 -0.0009977455769482721)
(5.002982052861276 0.0008947602796129296 -0.001186742805397228)
(5.000721116497983 0.0001910639855689008 -0.0003868626517411258)
(5.000256862256973 0.000582273484087863 0.01352191987732445)
(4.515122806677661 -0.01369392784503956 0.1241698231510326)
(5.000631296693192 3.189489349639278e-05 0.008242545328941335)
(5.032539011597139 0.01078216904378428 -0.006132475819299044)
(5.000880927566676 -0.0003235907151845004 -0.0005629708300191448)
(5.043441220159517 -0.04772997787548414 -0.009696238981574665)
(5.000700903320348 -0.0002556778925659736 -0.0009757782850976925)
(5.00001312373947 -0.003645710772412488 0.00844736806411862)
(5.001492417604124 -0.002212321204427715 -0.001328293084486163)
(5.001776684869595 -0.001049888150930551 -0.00150600024014335)
(5.00556540422473 0.06617000778049617 -0.04754574812270092)
(5.001472293708039 -0.002184838060276407 -0.001424442372325768)
(4.998725949572586 0.001721378865860553 0.004549270007300195)
(5.001772268642114 -0.001560663549579597 -0.001253881324979748)
(5.00091363774434 -0.0009714682569700587 0.0004828409002747059)
(5.00050764682756 1.868010137216725e-05 -0.0002033505063827768)
(4.998541150656658 0.001431447222007004 -0.004088735418877974)
(5.000320816033703 -0.001172626490293711 0.001347848318726105)
(5.000340430280327 0.0006637611832072243 -0.001513390710984336)
(5.000499472477474 -0.0006651744333204459 0.0001120984743400445)
(4.999512388724867 -1.761506974832013e-05 -0.0003568831904531069)
(4.998531825517188 0.003521994003651181 -0.001505638110749169)
(5.055926529577772 -0.04717807067661022 0.03014056582258898)
(5.000537790483688 -0.0006511855123389465 0.0001221692154733355)
(5.00042930586105 -0.0005781603607123073 4.363331777880015e-05)
(5.000592330286448 -0.0009348871009626173 0.000287092765483474)
(5.000543826782859 -0.0007446702551555892 0.0001681027818918082)
(5.000715713796788 -8.180769381566109e-05 -0.0004876618632186971)
(5.000778911352759 -0.0001825908217356324 -0.0003898522740496833)
(5.000508896891527 -0.0007562971019314409 0.0001121604968180798)
(5.000694378615846 -0.001004959351059363 0.0003876382244156802)
(5.000696476708715 -0.001032010185474004 0.0003443022883970812)
(5.00059055049969 -0.0009296219721247863 0.0005296610034990932)
(5.00002507831528 0.0009119514126364933 -0.007584729622106926)
(5.004566689015928 0.0004815070894207498 0.008751636429801299)
(5.00057925785596 0.0005756103441500617 -0.001147744723625385)
(4.996832689998101 -0.001340347594078217 0.003486280282392617)
(5.005569403427753 -0.001564355360811496 1.320580537894202e-05)
(4.999723087143777 0.0002567154929945177 -0.0002498713456878007)
(5.000607349746856 3.335179651613892e-05 -0.0009308681519100165)
(5.000137008753847 -0.000240683520387915 0.001420196108852119)
(5.000850657643738 -0.0007735869635390858 0.0002646704220953949)
(5.000789539817765 -0.000935612974719366 0.0003042839211498988)
(4.999651668945941 -0.001664287703298551 -0.0004828103133529684)
(5.000580157889592 -0.0009516751944502655 0.0003409756089001744)
(5.000665384943344 -6.09476778933419e-05 -0.0001849714478897262)
(5.000734164162284 -0.00132555946506457 0.0001775229609234172)
(5.001048124397607 -0.0009366752956158754 0.0004335378679822996)
(5.002412526711641 -0.003288933896729055 -0.002068843777128861)
(5.000165623710517 -8.857012648248892e-06 -9.625697827583798e-05)
(5.000117477068711 0.00209554107260247 -0.000891565454496852)
(5.000562438075948 0.003555721282359925 -3.029896745611015e-05)
(5.009334634319733 -0.004898998014653305 -0.0009723564296011605)
(4.998189319141819 -0.0007403338374092252 -0.001332975989349852)
(5.004690677545019 -0.001644433658991647 -0.001439807132746608)