/*--------------------------------*- C++ -*----------------------------------*\
| =========                 |                                                 |
| \\      /  F ield         | OpenFOAM: The Open Source CFD Toolbox           |
|  \\    /   O peration     | Version:  v1906                                 |
|   \\  /    A nd           | Web:      www.OpenFOAM.com                      |
|    \\/     M anipulation  |                                                 |
\*---------------------------------------------------------------------------*/
FoamFile
{
    version     2.0;
    format      ascii;
    class       volScalarField;
    location    "0.6";
    object      p;
}
// * * * * * * * * * * * * * * * * * * * * * * * * * * * * * * * * * * * * * //

dimensions      [0 2 -2 0 0 0 0];


internalField   nonuniform List<scalar> 
19632
(
0.02471858039241804
0.03550437010670054
-0.009731952825379387
0.01353408451037119
0.01750494675436454
0.08666586725569463
0.09120771309472762
0.0103127511288527
-0.0009022690947091177
-0.01492542555138259
0.02631273611077247
0.08795568381304063
-0.006400577543186713
0.01847566261791378
0.05311791695054282
0.04407511230959499
0.05316411861093617
0.05153099956005648
0.008052740271954182
0.1814126154196524
0.002931025070689102
0.05653892902147532
-0.03266124699347171
0.04673762254715916
0.01835220923438849
-0.002353598290024829
0.01548214069794814
0.06804430995751506
0.02203295765044947
0.02214008674860916
-0.01207882549333872
0.06433104915683585
0.04491480707137672
0.06414881713558035
0.01646554799988897
0.04950245464038921
0.06169206842819784
0.0172816164709441
0.01311932850728947
0.01741570311122287
0.099498830184662
-0.001393035733704011
0.07200131164977158
0.07811126591459307
0.01984434948827262
0.08827781454921216
0.05504897873197984
0.1258825388763962
0.146619740041349
-0.005890065783422803
0.09959608343935225
-0.005360085082292321
0.05254458262922113
0.06183594459320006
0.1173564863828036
0.1439162168677707
-0.003733566861461243
0.008179831254277386
0.1254952668193061
0.01513627856931458
0.02705154137479181
-0.0005014246508452594
0.01325770925853375
0.0369196804049804
0.09348032289595795
0.01555280247217441
0.1070632594012766
0.02361806415887278
-0.0006969757957610411
0.1106842516561149
0.02350664213513647
0.1518660516899601
0.1686972169775708
0.004777230053953267
-0.009482375255509825
0.02920711196493437
0.02397804476009534
0.214491454913165
0.1123961300545618
0.1036819991492231
0.09161768422307132
0.0883788491263794
0.05612475591439839
0.08504555539931165
0.1482808782594243
0.1598403483503517
0.03867621066851625
0.02844735676608984
0.1236215856877022
0.07159654289707344
-0.005680101956139949
0.007799108490963744
-0.01276523167797429
0.01184604161526441
0.007103767875542464
0.01291630503613983
0.04126239057013266
0.01584258568814044
0.06545967514080471
0.008990681427395862
0.005291065307340744
0.05759421178310209
0.03792861171444337
0.03680356274800841
0.2499780487375997
0.02558881074175182
0.02468466474787833
8.857352734681755e-05
0.1330912001051737
0.01899847996626786
0.0997879590237402
-0.02078708536205785
0.09907570053664456
-0.01236437291752912
-0.0361073140778086
0.02184480377922751
-0.008535717280090251
-0.01249949766117319
0.1054555538427983
0.02112559732400521
0.1249631280927545
0.01410651824521978
0.02056550184791209
-0.03242292172003772
-0.03697360297638169
0.07420590319704994
0.0210740906881157
0.00450544642426449
-0.0005070472901003922
0.09356650887870853
0.1006950029572798
0.002348902864378419
0.06956920822235851
0.001325905869096099
0.004657088991416278
0.04625828420014445
-0.0330332342066398
0.02146025672885532
-0.01332073898974777
0.04249001206244144
0.05045866841551094
0.03440945911951676
-0.007458489559229026
-0.1088825238596895
0.0221020959975591
0.01817983859577301
-0.005314135435539867
0.06270974870615649
0.05506177885822828
0.07135053275297486
0.01550649631025767
0.1810730869671256
0.08294931234712356
0.001337421610063924
0.07835834345047087
-0.008741739443110701
0.05021284509100921
0.008552130275873041
0.041293366320013
-0.001386484095867055
-0.02612992940890264
0.06319807897347803
0.07573936093548476
0.08461937945526259
0.07957515838561401
0.07553195694590964
0.005408170190486072
0.08779050349189224
-0.01476858691504538
0.09541964258684861
0.07210487566914124
0.09090324422634463
0.0801122187110823
0.02205016329916228
0.07895583469351362
0.0704464493709453
0.07131639243849021
0.008756524419398627
0.0731912223209512
0.05718113569668121
-0.007880518129066417
-0.009886526985257426
0.01506099228946061
0.09198240384233435
0.01727250061744053
-0.00913231759824233
-0.0120922341378183
0.0002710773235839792
0.09727610950749284
-0.008809010171702105
0.2348445483754088
0.03343319296920989
0.00956808299519305
0.00280775496459804
0.02809254493667707
0.0262428058699462
-0.008405571673182797
0.01519848376755536
0.008639537563443383
-0.008311291783252467
0.007215042462780121
0.02464434626092991
-0.01709577202002307
0.03339128028002463
-0.01304153039220674
0.02056372286446632
0.4462792372660198
0.03131340225629524
0.0536300368135668
0.003816239504426877
0.07990024224470275
0.02291556914248917
-0.00311899359131269
0.0263015706859802
0.05402391589978681
0.02342582883086979
0.08180063674896706
0.02085471500577942
0.04384812988261289
0.03904842438777716
0.01838965391137536
-0.01036917159549075
0.02899213912518265
0.01722052561770204
0.02018369586981382
0.006280505801461792
-0.02189112227773806
0.0113567557617012
-0.04072367848335944
0.1044975910586507
0.0596794288200754
-0.02064764791644398
-0.01126155564974035
0.02709983913459211
-8.691449895530672e-05
0.01404584709230532
-0.005816298917375435
0.02023656802663625
0.01842611274296538
-0.003329536179963146
-0.02388360383659186
0.003364257357297206
0.4756200224725252
0.04080244380015424
0.01004222375316318
-0.007870682768130384
0.04612149907163677
0.04035951027704817
0.03011942023761257
0.03230240216961829
-0.00543625773947914
0.03195531192729135
0.03626174027778532
0.0356937636364984
-0.0136288503575778
0.03253189973764454
0.03583742256261724
0.02711267013875514
0.06893164562860214
0.04163324248210061
0.02726885677568869
0.03567850834574854
-0.01183037045961664
-0.001179196181472065
0.0512532009610359
0.04005158459088985
-0.001210970879099318
-0.01604791054087835
-0.009096618924680536
-0.02475120879002404
0.0118307093887004
0.09307480654866497
-0.01168876524878738
-0.0159603768532092
0.02150121685624872
-0.002093935899613241
-0.005325518241911421
-0.01093159399863658
0.007158095082071199
0.02192062867182188
0.02294045625508968
0.05232828321900346
-0.01211974382378893
0.01410482997119144
-0.003366366791905079
-0.003537397258311732
0.08292738665537264
-0.007038859677928061
0.002816949293056902
0.001504554025734686
-0.006482114484891125
0.01623226241349316
0.0356914685822438
8.282177013449524e-05
0.01725482814598527
0.06694433201774104
0.01849476109970975
0.107395092233875
0.0144155277481301
-0.010047158204042
0.03627641494232507
0.04399813147076626
0.01346878484995134
-0.008898213541573078
0.04177203591620881
0.05711830652266073
-0.01189018439826287
-0.007683270909357823
0.09319522446929127
0.04107461291894256
0.0008994053697027494
0.0407864136398727
0.03945662491847203
0.01706171791689642
0.01223759016296445
-0.01454413278198908
0.01627472391705834
-0.02833968840882893
0.2089848981063145
-0.009805452799356889
0.05419010820026521
-0.005874251906121432
-0.0100384450361792
-0.01250925219428178
0.1275013429790326
0.1213814260784475
0.1294912776119837
0.005496529974356732
0.001759856988002404
0.0353559673472176
0.005577211258024846
-0.009946554819028407
0.1273482921134203
0.106107401198128
0.01464971731270122
0.1224697698801724
0.02473753505947105
0.03086470440374084
0.01982125926099134
0.07008323749004064
0.1161236367597949
0.01472812700376894
0.06890284146537902
0.09303658816045519
0.1201335934341291
0.1081309700119981
-0.00309545518038594
0.09258480505739621
-0.0003427272064175225
-0.003403665135691984
0.004875438724247148
0.06824816238035934
0.009910913569876898
0.02480441377048165
0.1200011065132953
0.02171459768946942
0.004652605511181139
0.05347928738235911
0.1540354583036393
0.0456709442651377
0.007705599138924981
0.01859824107979305
0.07642020388844356
0.08890829730472434
0.07071637988579718
0.002510955458743727
0.02128530548454007
0.05699957211143399
0.02223700087260931
0.04614331059276521
0.02848874084267037
0.01466009376732398
0.03173509420316283
0.02643479526596491
0.005526126615692398
0.05562139557856828
0.01637426764549685
0.04408925674878504
0.03828419716478496
0.01039095477655156
0.05218137122450518
0.02513901144026972
0.09872471030989005
0.05372415145286856
-0.007596193801567459
0.01840204043058486
0.01375087352003062
0.1817054067228241
0.1464369639790313
0.05094748817406408
0.02741800709498811
0.09298327934844997
0.03572429688282031
0.01353109410383842
0.1016414245581381
0.01092309710898887
0.0655916939076326
0.1247304871621811
0.1123451925167236
0.1246514436014371
0.1109285280082579
0.01718493216429608
0.02314487862419736
0.004232253418178952
0.05360232210040922
0.01479545150339103
0.1780891613660385
0.02186047958194811
0.1478569683171562
0.06141688380069361
0.04380190661935945
0.0344823255671089
0.01362474840325599
0.0293566400459826
0.02387444495439144
0.0229082908014087
0.01767283917577628
0.02755651672150579
0.1313011614537923
0.08452205518236287
0.0558529474576407
0.01357443415937469
0.001888680980685244
0.01558854980379063
-0.01769115388731697
0.004597356436285983
0.1017454757447164
0.02362345805581074
0.01350191131687514
0.0752596865028375
0.1883668374575157
0.01606334603745257
0.0774752223539843
0.1510367412585603
-0.002276772034375389
0.05231244754338191
0.04824632062371632
0.0904835246764412
-0.01624515100960291
0.01993456112536979
-0.005008383845436142
-0.01164953067414455
0.01423521162537792
0.02141658692878179
0.02378340761822665
-0.02211430329796105
0.02051448131988661
0.05449064434248978
0.02117829150495869
0.003920123879582626
0.01242239402776209
0.02315875057853733
-0.01324869081662544
-0.000969685510692068
0.01906895782583267
0.02575657624270268
0.06905508590847342
0.03149563314319341
0.006111483070900843
0.0268430547911453
0.06709469366795044
0.06382091306990086
-0.01344215746055261
0.07540157338020406
0.1049961116399896
0.02581893064148869
0.01594723516385758
-0.01174541521464105
0.03653126906979681
0.04617417240113202
0.07537499900355545
0.06201715382272464
0.04104530620140048
0.02773045697998182
0.1015356642908251
0.1110839776711439
0.1071233672412102
0.04767350113807902
0.01598682834469009
0.04507694050167386
0.06203745008555485
0.03318503344635612
0.0374744683473131
0.01753921172816011
0.04954549911458195
0.01555514761323675
-0.01274528204608551
0.007317708493698813
0.007181545253130819
0.007931870696710001
0.0322911868537765
0.0537033885299573
0.02703585292661891
0.03094270122861077
-0.005250689696907301
0.02328085145153689
0.002218575069309673
-0.002480612263509825
-0.00491431773942181
0.02796140917821064
0.08825101304270686
0.006905204410839384
0.05010591669815887
0.04477893611840444
0.0253241392282548
-0.04569141490067933
0.02568565579896806
0.04516697057791363
-0.0033236503303926
0.04024703733438898
0.04198911036739578
0.0477406678475177
0.01896967606014521
0.01813141629020125
0.008195604209755025
0.1757170379878159
0.03583448272054671
0.04942197960197987
0.04244553755658406
-0.001769192986252376
0.01421166633448891
-0.004622076650263185
-0.009070755294947025
-0.004280527546771652
-0.004187865347721051
-0.005469308250488289
-0.000344685219392008
-0.1086014961580816
0.08042119158684422
0.009476798276004788
0.05133414286384222
0.0827207385774273
0.08322064685502885
0.08287623131420978
-0.04109726626702325
0.07294884375677542
0.03606529722579769
0.03416739339089845
0.07136904336578113
0.03486495226580934
0.06572050504232387
0.1167248837617827
0.1486364163586171
0.00583952481744521
0.04380265518522072
0.07187988593412632
0.06482335504535507
0.1172580376869351
0.1170330823505577
0.06423229269431922
0.080658071027828
0.06606364712474933
0.06717140366833461
0.1295555931286851
0.0625736356692809
0.0536245369057787
0.01631508742450127
0.06319149791134053
0.05929797489545531
0.06117527171461308
0.05717134289312272
0.02930820953429627
0.01809523776870926
0.03733245020193843
0.02930303918407563
0.06898064041927954
0.01089768084122415
0.01682645573402559
0.01578180854256802
0.01792534012180694
0.02174836586854293
0.05431381963478044
0.01756821486647601
0.01792692030376592
-0.01017699795872599
0.05618127824909171
-0.002684312252924109
0.0002335213208979285
-0.001065887000787672
-0.007228330135093412
0.03900445464481124
-0.05259222858034717
-0.0065422228744286
-0.000150134207153078
0.03065861674625603
0.05063169219377695
0.01085310724264751
-0.008278072453131693
0.02143010681108049
0.02325783825256819
-0.01027519651973998
0.02233427303091185
-0.01072888391191695
-0.01004380996339294
0.01175448760060835
-0.01597831940895033
0.0213778643905651
0.1810059192194238
0.0127308871587658
0.01285027919416202
0.008551626729776577
0.006170816235146466
0.007189658726973371
0.009854017505672065
0.06497892387933762
0.006881910253490183
0.000485047024469953
0.1363911238785381
0.05143813958033226
0.02691919299410197
0.03358429168381467
0.03679423535412948
0.08783281778028064
0.0289803824684511
0.05078935869532731
0.1882275326952485
0.04457013608300042
0.006360227002481413
0.0304584864047521
-0.008342560241234103
0.04809512434310946
-0.001552186116698119
-0.003738315042983521
-0.003629721604644004
-0.00025410404264987
0.06649302581278384
-0.002514226417747448
0.010177695868532
-0.01172985860320903
0.02213972127937339
0.02101389694438822
0.02668443835198344
0.02880013762221242
-0.008767938920645622
-0.003716061312493159
-0.007831385203741969
-5.143855503292968e-05
0.2338011126828321
0.2182102607653239
0.08106852452819246
-0.008993249033637215
-0.01319012821778232
-0.02621841856466334
-0.01452762687594583
0.05254007115516608
-0.01180752565557893
-0.01220318972339696
-0.01377632315160491
-0.01238625567605781
-0.01437317035000843
-6.97456142867434e-05
0.02174946281645195
0.02323657009432708
0.05766895122930707
0.01856024832337602
0.01922307331404535
0.02295411258876753
-0.006599582452880125
0.02198400760477107
0.02306917155953657
0.02195821918930398
0.02048015058895005
0.02088409654442656
0.01867270957832249
-0.0003579970763467064
0.008142909997675172
0.0234594249620854
-0.007378973393006005
0.09976039967809447
-0.01488695986901517
-0.01563344592126757
-0.01519176577609137
-0.01090563850830055
0.02697927290416295
-0.006518066460052639
0.0259069147592896
0.0276510510826623
0.02839450403596416
0.1063635090899217
-0.01078805874568138
0.01309400653528965
0.02559300451310319
0.03003150783155003
-0.01520053418983577
0.03165060687727015
0.01561142371066012
0.04608326625602208
0.09457238380396751
0.03668448445421424
0.02712158224467936
0.03005956382025579
0.02891312519334412
0.02416378504348763
-0.01573848747348536
0.02797382785235463
0.01280417750270576
0.0001090682410892652
-0.01350221195603342
0.01346964428761495
0.01175416962200956
0.006249349470522528
0.1084482550937501
0.07486884687379175
0.01494625643272216
0.009011256062253401
0.01388031974951188
0.01324469193104857
0.002748521495675716
0.07046365141705932
0.03828602326078899
0.05638814757187965
0.08904170187981124
0.01013220896295668
0.01536883742207911
0.01849982248424254
0.02447791004513834
0.05447930068335322
0.01425925456296507
0.09674991316760391
0.02964161771250223
0.1233237419299838
0.03162073977280962
-0.002428392652983005
-0.02570818030060227
0.03051413318955733
0.06953154116020439
-0.008305902043831151
0.004367251502175282
0.02947386842578315
0.08742850226829177
-0.005922248061265711
-0.0163792026444791
-0.008786917938143349
0.0492033666282309
-0.01202323812494664
-0.0008532147084858358
-0.007924328382392709
0.07362237496125754
0.05969821712017268
0.0290863351759638
0.1314348881167125
-0.008076611062091284
0.01636284694204545
0.005574168712970774
0.003273154355563045
-0.008089213430491906
0.07571682447367371
0.03542419459588744
0.02943565574735751
0.02549412788807322
0.02309908149066104
0.02891601879259589
0.005572408751177246
-0.02633745986345455
0.01051475879700673
-0.003072608386459078
0.02480115689248813
-0.01206039395172501
-0.005990191482436458
0.07778085515261812
0.02310362946392722
0.02763831097193404
-0.005477815207127164
0.05923189380098078
0.02400601349730097
0.02652999676122513
0.1204490915777707
0.02223008512474002
-0.01546030683425429
-0.005343388564908365
0.1413230562780112
0.07618921711423816
-0.006011102199766811
-0.006897367896860874
-0.00879439235965576
0.07593037775633335
0.01955884427918051
0.01589720428915475
0.01689678196675162
0.01731297500131057
-0.01016633206975823
0.0100965621670335
0.009890850740883582
-0.02289757189889867
0.1417046328265628
0.2007801808286823
0.1879954189922959
-0.01550466535473138
0.1907873809056161
0.205349790931404
0.0199619957424695
0.15539758229735
0.02196033238681662
0.2116567099664612
0.08464653322637529
0.0399524885950658
0.04307437540711504
0.1057557735536682
0.1191453216308732
0.03873346254457027
0.1391169283828479
0.06577738480437152
0.1644855909912406
0.08530142734204067
0.09151454359188738
0.00990068348032448
0.02269955169220619
0.0925185904288133
0.09959182164553834
0.09594536255181403
0.05558426033484567
0.09033347327264733
0.04012199749399022
0.007728243368666943
-0.03870558360579253
0.009887274429698743
0.01323336886865144
0.07617949673734112
0.09461877346757334
0.06809527684841307
0.07158666644635403
0.01615732697611801
0.1441499699179353
0.1477454498926905
0.1828147844794072
-0.02691788057831255
-0.04071513782016562
0.008063953302651446
-0.04655554726769
0.1241192563334676
0.07367270944184309
0.005582936746533712
0.05895539820310888
0.09858355374626529
-0.0137252443951245
0.009456457038666323
-0.0168254295193815
0.0214732415602258
0.02295713004792932
0.09043429568914026
0.01655482540188552
0.1014526467385908
-0.004528415488168638
0.03001768163752016
-0.00641772936942245
-0.006552952850562183
-0.0008680766555310436
-0.002054800344130544
-0.003997235756387249
0.1150160439880191
0.02255368674430441
0.01676751268971669
0.02512155807697398
0.02268938109430777
0.02498143494634228
0.09152565942925951
0.04093238440153844
0.02966060284255122
0.03179722984253484
0.1106303156462885
0.06439548966932812
0.08218902700658068
0.1049147352857168
0.06524025780243616
0.1179241177847147
0.07819900412046857
-0.01029787805929692
-0.0006115993030510417
0.03062709122220062
0.06932748584481059
0.02930032899929018
0.05904529092356528
0.1514364286962938
0.1551948217192402
0.16529651395863
0.152358719919002
0.01183627608210486
0.04562884255466031
0.0416830397994612
0.04720843329237969
0.04486411299195948
0.03747438711604083
0.004401615768127304
0.007558596993672076
0.08506534643354509
-0.01487739926193142
0.04355005147549078
0.06310482139887126
0.02333031396099169
0.07443183147996268
0.01876329344950009
0.02751337759718457
0.06839960588455267
0.05272085787863376
0.02993839620988036
0.02217264220231112
0.01223686239833267
0.01737795900296622
0.01656386201578439
0.01250788092527669
0.01188644417124231
0.01294846388168316
0.01383998122098395
-0.02587500812361583
8.963568338521948e-05
-0.01954836360087915
0.0820813295879822
0.08479005689428773
0.1080801536024362
0.04056632789590767
0.07887111606607988
-0.0007805744927190749
-0.04655740441403144
-0.0105487122765155
0.0122790076538729
0.03098203423716994
-0.004841798126232282
-0.003533574401162148
-0.01162094170870692
0.0001888915373111159
-0.001455936668368367
-0.001651602410771006
-0.01651008042459253
-0.003370718419864466
-0.05888271322900616
0.004529377912863061
0.04001597572910408
0.07887290024316429
0.02350828493475354
0.01379054044728587
0.07291633855870057
0.02545704103157733
0.01828582528640333
0.02347284258600441
0.02131664066680249
0.0204831747631477
0.02144326222294395
0.0269090203359158
0.01985077273082958
0.01970474766115885
0.01403517941933014
0.02525575390642241
-0.01236196114086338
0.02690274054103642
0.05444449823904016
0.05841987778916364
0.01802692134379645
-0.004107186382084203
0.02375000077254434
0.01868470051440861
0.05503457749800982
0.01344267662053199
0.07085118037207294
0.0182754844435408
0.02203001007093009
0.02140856603699966
0.0154046874870229
-0.02645383563688423
0.01596325780136087
0.016257336875754
0.01562509504790094
0.01569967302735069
0.01488725421224974
0.1811379768340954
0.01224646706491696
-0.009839872623186334
0.1287991327968899
0.01025130267286127
0.006497797569657074
0.01738819231227686
-0.03467475626157033
0.01718729587058477
0.008171007905982096
0.007714827067917664
0.09642477649229564
0.09872281019401724
0.06378575550756033
0.09851474347417474
0.01768984154099439
0.08277889830430173
0.01956486788142985
0.08426581501788646
-0.02983474675513343
0.07954060497801661
0.06075468166065675
0.05432219949922492
-0.01311977078669424
0.06230507500690392
0.08619276115677027
0.02608819147031244
0.1064330634861038
0.004038601899645207
0.01372864334700863
0.005794298042855372
0.01630814627430751
0.003342326307099643
-0.03787983514394593
0.005235814177523722
0.009211159973302829
0.04312126359131841
0.0622150802305138
0.01643430617861748
0.07767747560759634
0.08107235446438958
0.07619591170226059
0.01200082396693311
0.07409944444861907
0.01344569160665487
0.07027937137033335
0.009184808351134359
-0.01195325295090368
0.002701193468456911
-0.009354812270766269
0.01115757674375869
0.0007341497064882231
-0.01453520786760354
0.02950960967049551
0.01590185081626721
0.1358405294405338
-0.0142994380753332
-0.01565973119755501
-0.03248684376165044
-0.002200832586302506
0.0482215846412374
-0.06115702542145982
0.002924229841753119
0.08925470518851381
-0.02021727359334199
-0.04617115218994635
0.01986540881848269
0.01114776875997568
-0.01263919898694372
0.01974838439207644
0.01130650219258315
-0.01106481203060292
-0.006863110775788995
-0.01191820279587931
-0.008620688063923097
0.0952197361512262
-0.01974942287389687
-0.01675585342156014
-0.04463156285981852
0.009933430226715539
-0.007364283959403411
0.01641167506965207
0.01257463871378234
0.01006445943762842
0.01288587095230053
0.007832048714299831
-0.007235811471159971
-0.0004135731724000148
0.002768896650659779
-0.002798444875463119
-0.000341619992938784
-0.003640940317987161
0.004714138127063411
0.001041264804424591
-0.03364878944322903
0.04431092737292903
0.0662891166887461
0.05674306660628942
0.003190223225330992
0.04076089805158964
0.0445259825832109
0.02835009303870431
0.03263154730027581
0.09378074251179949
0.0175276055247672
0.008805444754392832
0.07762486475930147
0.0206965008439145
0.02003953239582729
0.01977872969736564
0.04928536801661716
0.03004777492607564
0.0209951527114857
-0.0001499357912142691
0.003054585945391152
-0.003249967739807597
0.02024249516257759
0.09400985008968499
0.06626001295640266
0.06629966735608531
0.06049530285060386
0.06155787702563621
-0.01871698408828897
0.06132449863300551
0.03437403801050627
0.0193258017053203
0.02002534356900157
0.006409646193693242
0.0125137649063167
0.01644784819165804
0.01662287611378551
0.02057706173636404
0.007725870427270179
0.008245696056179494
0.02000247561076936
0.01003918930448807
0.009419558262108057
-0.02290321389270778
0.008159292500821671
0.03307477036929188
0.00757576804830234
-0.003654601175325281
-0.006247965399667749
0.006549952520007315
0.01294977746346208
0.00781792126672917
0.03051067615459964
0.02904970064767949
0.03188025709988807
0.01369949819015995
0.03653463382792253
0.03042471191279143
0.03165947339460041
0.03284650334303873
0.06274112321963288
0.06779841631365334
0.06411375058978507
-0.005974454374602543
-0.006949973227619022
-0.006741557547999947
-0.01337717070516642
-0.01123316634151409
-0.01336257142128037
0.0108277836529554
0.07556372395615989
0.008575694861039271
-0.01541320945083174
0.004106758038770295
0.007581185654008173
0.00600919777871124
0.004724506119616244
0.005601390245887369
0.004744737697370582
0.001277062470538159
-0.001324142161780354
0.01156140350181776
-0.00423941269012824
0.06414261471825036
-0.001599150406442454
0.007919194383918422
0.02048814479713129
0.02061262814520253
0.07128925691060532
0.0360843091002044
0.01221008680435614
0.01347177930661397
0.01288540968221791
0.06505981176180914
0.1575708548160732
0.03433492210810682
0.1220379314100867
0.05876474981323034
0.03032298135979904
0.07045342830442254
0.1378875612712306
0.1321739465045599
0.1502255826728366
0.1477362968584638
0.1255120405827868
0.03211969860093197
0.11299093755167
0.130978942934372
-0.01378154625246537
-0.008891561247726203
-0.007596803439340038
-0.01094559875303131
-0.01068419326834047
0.006186773674814667
0.003521710670307049
-0.003330926752866721
0.02009146185932075
0.03751194601290339
0.06589291988447667
0.01484772508995434
0.05920490450975201
0.01564275986846883
0.02028312001506918
0.01155047549168352
-0.009823440455807946
0.01845690871652915
0.01928425513454625
0.01561553523064746
0.02859314142327324
0.02470765452580959
0.01682336372082327
0.01233333116856801
-0.04103093015090841
0.1120438927207772
0.09692252602565975
0.007444245800073781
0.03405632808472713
-0.005255020171948658
0.01240921880478431
0.009376052674632493
0.01149115125814085
0.008295031668406857
0.01074068517376808
0.009312863717391729
0.01019425372167564
-0.001017088887360024
0.0005078319134393532
0.008926245701361102
0.005358654158819772
0.004700772454826418
-0.01175933154365221
-0.0002983131795430179
-0.0002986192521627453
0.06951537437611841
0.07613189473180131
0.0818524401995626
0.07285781928957412
0.06887099921972922
-0.01639842725718411
0.06595293928317635
0.06479833769112289
0.02829273548193527
0.03229464679417295
0.04496191325473116
0.05241500209070787
0.05160864706630205
0.06013973225467539
-0.02924257000334411
0.06557225476951835
0.06504542885877393
0.06632255901385077
0.06426194179868182
0.06491691065788829
0.1135455862814181
0.1068924226401286
0.1091042881142829
-0.01780087192748396
-0.0192644069741914
-0.02474845377911814
0.0413617793455848
0.005282262154655813
-0.0007974929768920282
0.01861122726208753
0.01534120281335863
-0.004216723562031644
0.002631447439280033
0.001192570526763844
0.0005381909958490997
0.006189950293575828
-0.04237218636453234
0.03084159538423817
0.038544664055648
0.02878537423370996
0.02793835931117357
0.0224911369170467
0.02119849255133677
0.02577521064757268
-0.009912058919650902
0.02460935198338051
0.01912889722608972
0.04612373534116834
-0.01206704656422179
0.05245869483877613
-0.01890729156036307
-0.01319137716111338
0.00194893019073795
0.04768413762060707
-0.001313160056569467
0.006348373508733603
-0.0172611774330403
0.03801095046370116
0.04866686026505038
0.0112513449728518
0.002016691767354391
0.05073165781427633
0.004677546016444523
-0.003961700214138933
-0.005910205996590459
-0.002901490094282161
0.03564541052901621
0.04033669671264364
0.04196380394227046
0.03580292295882172
0.03765137365160564
0.03995909313172209
0.05388970711569197
0.05224788629770346
0.04743178775976535
0.04847412498286895
0.0520529334084117
0.05291161399078367
0.03274723197605305
0.03328817633601427
0.03289104736102817
0.03116975194229862
0.02776541388333256
0.03916684910164407
0.04069760887161
0.02688138500782761
0.02457652003364181
-0.02891377486973575
0.03685250462202222
0.03676294496979698
0.03884119331196818
0.01873284478622383
0.01559414479886594
0.02099286012810221
0.070674815260518
0.06477432679983849
0.0641705383853152
0.00266432858675614
0.05545249603802994
0.08890523753613794
0.09018817710506076
0.1024889350068465
0.03579401983751249
0.03931477233478758
0.03622745037074866
0.04221378753114449
0.0511284928577589
0.04229317288481776
-0.007603676427178743
0.01369871577655396
0.01705735829850422
0.02453073196120589
-0.01278540240369675
-0.01288845172046296
-0.01355317944217976
0.003361572505135934
-0.01341583933532839
-0.01323142654685668
0.07766501931131567
0.04048565782598887
0.04365448103731691
0.04454707302704601
0.04402294427156692
0.04085647898243503
0.04488073311255545
-0.09196738054661975
-0.006548957715488868
-0.008010927084599622
0.009248715748338769
0.00739150967581639
0.008590455251781854
0.007185871441237381
0.005177404927741937
0.01311997108382591
-0.03648797751712687
0.02530454294874831
0.02861578067609308
0.01809445646873273
0.02761401458059937
0.03262339415570078
0.03062481354047837
0.03274586519714639
0.003276761169352786
0.004826748537031698
0.003025752809819005
0.005329535597063442
0.001826875536700333
0.01199328978771851
0.005057222239282499
0.00667184401326102
0.01460504206435138
0.003891885739192962
-0.008474392976298911
-0.01210400624550599
-0.01088464160729261
-0.01045009217741683
-0.03022747524918014
0.05396063985228801
0.04365289301042059
-0.007423365182763045
-0.001299061712782337
-0.006054180018268209
-0.004690655143022293
0.002215990092147799
0.005511229309362884
0.003677040826600967
0.001650202425414336
-0.008328899279124927
0.09220737208816425
0.02513353306633969
0.02248637168592751
0.02007427222413936
0.0168334446990067
0.01740635285814056
0.006709618809629096
-0.005110202811468258
-0.007071760942847444
-0.006177463800905575
-0.004646957461919665
0.0008966244246817917
-0.003013100321981067
-0.01770939131372829
-0.02628126851129226
-0.01831561460246938
0.0177463709935014
0.02192526736950274
0.02159825720990978
0.02618296059135698
0.02117610417849752
0.02012707750882771
-0.0001072576458862054
-0.005911471607373197
0.002613187359651067
0.002565241600340314
-0.01604668376512191
-0.001772796536022295
0.004706074621571642
0.001817289748285388
-0.007238951274946956
0.00122369777072398
-0.005492234916129377
-0.005446068165986634
-0.01250502724489994
-0.01146568375116005
-0.02463829605718228
-0.01165806875507711
-0.0173148803593262
0.04041530793295989
0.02705001596906626
-0.02153148833662888
-0.01384825707717487
0.008804314887315657
0.02232433187616906
0.01445165664324217
0.005396845861844177
0.003712155256908606
0.03744862928201383
0.01584889060428689
-0.003054408321473356
0.010012317654216
-0.005814976074641188
-0.03801056277889507
-0.01321081619087347
-0.01521485926076598
0.05493169287854201