/*--------------------------------*- C++ -*----------------------------------*\
| =========                 |                                                 |
| \\      /  F ield         | OpenFOAM: The Open Source CFD Toolbox           |
|  \\    /   O peration     | Version:  v1906                                 |
|   \\  /    A nd           | Web:      www.OpenFOAM.com                      |
|    \\/     M anipulation  |                                                 |
\*---------------------------------------------------------------------------*/
FoamFile
{
    version     2.0;
    format      ascii;
    class       volVectorField;
    location    "0.6";
    object      U;
}
// * * * * * * * * * * * * * * * * * * * * * * * * * * * * * * * * * * * * * //

dimensions      [0 1 -1 0 0 0 0];


internalField   nonuniform List<vector> 
19632
(
(5.008448452409998 0.01520521472816965 0.006426751693233338)
(5.000026367255177 0.0002723752114269605 0.0001000598068948718)
(5.000237356859714 -3.757763330529097e-06 5.27694232459196e-06)
(5.000056736464558 -0.0003711850212994863 0.0002320953485167401)
(5.000092576800186 0.0003079186515841407 -1.748144296244974e-05)
(4.999435649421781 -0.0002537467905899359 0.0025524050069643)
(5.000052331002677 0.003005696220614815 -0.0006964430650762047)
(5.003520484217388 0.002154229628984459 0.002288133316744944)
(5.004899742551161 0.003389876136684921 0.003556502012343024)
(5.00593377026392 0.0004933974445569937 0.001881467965412386)
(4.999890371281584 0.006314978873102313 3.659294478447946e-05)
(4.999799427073301 0.001157130769510349 0.0009883757913765757)
(5.005482327258157 0.000735510625688032 0.002466232041738205)
(4.999969249378493 -0.0001913325666810213 -0.0001545369724875662)
(5.000030237117232 0.0005765492807885516 -0.0002086102630789151)
(5.00025387280551 0.000712287877539769 0.0002763563646842049)
(5.000068277593227 0.0006133511309406993 -0.0001570881298867841)
(5.000135555309456 0.0006480324842085907 -0.0004082609781193525)
(5.000155488993857 0.0001551128552303029 -1.126851228089861e-06)
(5.000526317912225 0.002027360267879183 0.0004657017988196498)
(5.003588541523892 0.002171778212306158 0.002314605343677417)
(5.000964864792724 0.001605164553861951 0.003291509439165366)
(5.007433505034972 0.0006732077949162298 0.002648228457800778)
(5.000192070914967 0.0005718623614651443 -0.0002476655662959796)
(5.000618165761344 0.0003682874060025069 1.13226456703925e-05)
(5.005652122524022 0.001401900153111207 0.004069328677579807)
(5.003806877132172 0.002983122889112969 0.002014183581497815)
(4.999698033421981 0.0007348580272768606 -0.0002680824879424949)
(5.000301296026376 0.0005400867105398354 0.0005808551127856838)
(5.000054041910167 0.0002238657248906654 -3.153711934267241e-05)
(5.000162665129018 -0.0001022757363979433 2.203906787900516e-05)
(4.999751807838236 0.0008090079436026431 -0.000322791932946436)
(4.999974404306181 0.0006351276399267241 -0.0001294542182757324)
(4.999747561801388 0.0002443564382856618 -0.0001115679507456818)
(5.000124277467337 0.0001764902444581238 -1.446110703692829e-05)
(5.000671422701816 -0.0001408926011295001 0.0005802252001289485)
(5.001019683567652 0.001736016247759881 0.0006862853358200184)
(4.999801559597506 0.00272506433895762 -1.81042491989359e-05)
(5.003505559164107 0.001679549453146495 0.002907425770238435)
(4.999883639355479 0.001091757330884722 -6.050884442694218e-05)
(4.999937139415492 0.001212155150099094 5.371283808206196e-06)
(5.006011081242601 0.002474813284393677 0.005523760867883325)
(4.999027185335651 0.002299488138881511 0.001160056783983145)
(4.999824162171657 0.000805536170850417 0.0004270341972854892)
(5.000062152484875 0.0001829425774235442 -0.0001026805962166642)
(4.998919356222323 0.003548854861826157 -0.001301613661387533)
(5.000400100339636 0.001909015979561031 0.002429638732214415)
(4.992846392968556 0.0008107262614445964 0.0002640057343109298)
(5.000710275730079 0.001730872118402711 -0.0006923254664787636)
(5.000278943296069 -2.963469646766696e-06 1.091745521154835e-05)
(4.995970611859647 0.000344214853984465 -0.00135350779056419)
(5.000220331381986 0.0001066027403026344 -0.0001622364324272554)
(4.999938869098951 0.00142613869580341 0.0005503840986598404)
(5.000258185336508 0.005828831226517805 -0.002851884802576969)
(5.000106819336412 0.0009443213329119216 0.0003784300723556434)
(5.003136668504237 0.001593393107831461 0.001099776800126426)
(5.004047605459868 0.0001505548346025835 0.001251458467179407)
(5.00081691079968 5.649611223158328e-05 4.072016518670261e-05)
(4.997943804340845 -0.002184337012143186 -0.003788254510647412)
(4.99996416272125 0.0004247188783352778 -0.0001106844863612606)
(5.000055463926603 0.0002395420553843138 -2.086680340550606e-05)
(5.000293848647621 7.362376632841519e-05 3.016645438215021e-05)
(5.000190091152167 0.0001794280514017209 -2.750010702048025e-05)
(4.99978220111942 0.0005163294072415369 0.001323664474244006)
(5.000429015609721 -0.0003820316377235375 0.001465345581693303)
(5.000022468020089 4.406253157978481e-05 8.267700361062973e-05)
(4.999937265851622 0.001182876900085419 -2.204672512312717e-05)
(4.999772277501334 6.983928363035668e-05 0.0003627096107452683)
(5.000372080262178 0.000258694248864271 0.0006579744338717489)
(4.999969092440918 -0.0004544347878274111 0.002297944267426166)
(5.000084518262962 0.0002500834722073762 0.0001461715026014345)
(4.993781641131315 0.001958752778473997 -0.0001956008730695756)
(4.98823768594993 -0.0002662671933724281 0.0004685974063213972)
(5.004663299047221 0.002008539555371305 0.003136456047678806)
(5.000680525228622 0.0001012730610803422 -8.784316281659326e-05)
(5.001526118304746 -0.0001068411458129914 -0.002027057781495369)
(5.000187137007126 0.0003973147700450727 -0.003161098050772018)
(4.997259215632999 0.001188427655318267 0.02312041088773838)
(4.999972855158546 0.001301605612031987 2.714867593805863e-05)
(4.999537470149256 0.001628375601469755 -4.696409098377486e-05)
(4.997567125794562 0.004475362723464285 -0.004161459686808516)
(5.001116694826178 0.001142358326469869 -0.0004811524021346245)
(5.000687467233562 0.0008865871776563237 0.002645677324462788)
(4.999628515349996 0.0005805682111962457 -0.0004330342936152144)
(4.999580619121684 0.001865930621650422 -9.683694431828713e-05)
(4.999353667934709 0.001905204789153296 -0.0002056970116316995)
(4.999919084967532 6.759760276198563e-05 0.0005455719917855547)
(5.000942852358341 -0.0005751819401943832 -0.008423885847827146)
(4.995809381955977 0.005527216170278761 -0.001951490263255809)
(4.999954979817439 0.0007244591224399907 -0.0003238205489191617)
(5.006851633192327 0.0007226365764758155 0.006068481389546876)
(5.005895395421309 0.004233611334045682 0.00856367347964427)
(5.006112704724199 0.001729226063686654 0.003956420667769746)
(5.000096137124714 0.0009970078693407214 -0.0002691574369083918)
(5.003416208977246 0.001016299417547781 0.002056958845084408)
(5.003494393564389 0.00191974408355789 0.002613742720694615)
(4.998674104338805 3.754718690493772e-05 -1.255175313746922e-05)
(5.000029883476277 0.00417578606422231 -0.0002463238735088863)
(5.000773134038227 0.003405302452450872 -0.00645561736434519)
(5.000213805345325 0.0004007410746118273 0.001816897450715828)
(5.000061973565672 0.0001147099048152129 -0.0001261566898650511)
(5.000637725964428 0.001008572188889679 0.0005626811574516005)
(5.000150011799676 0.0004379395452018271 -0.0001771284397192279)
(4.999992259066886 0.0003655326917626607 -0.0002087823865156174)
(4.998436847552335 0.004596246805592091 0.001724702063242882)
(5.000248116065579 0.001043830969060371 0.0004868599396778191)
(5.000097502751355 0.0002440334792040667 4.858560061729752e-05)
(5.004830585380991 0.002368298578575798 0.005788902245741866)
(5.000940618649561 0.001030474590505778 0.0008910777969228077)
(5.000092883973103 0.004163128557710744 0.0002745320308735762)
(4.995925835462536 0.0009906063551994749 0.0004232631062229232)
(5.005004002825439 0.0005749841705168376 0.0006687712591444952)
(4.999458553200486 0.001249196327981412 -0.0001835820882391124)
(5.004121019896188 -7.874678898818843e-05 0.001693000800292759)
(5.005782659436473 -0.001528644894891634 -0.001046683553950087)
(5.004075745346754 0.004238652511589624 0.009385858715019953)
(5.003976614226991 0.000381601107743987 0.001165918083707015)
(5.004572129687547 0.0003977980569724447 0.001043577638844909)
(4.999677316858818 0.002513999236972909 0.001674868913609049)
(5.00372817453035 0.00381521397724441 0.004902646840932593)
(4.99348363916728 -0.0001409490684372774 0.0005266324191043163)
(5.0047010883515 0.002547989525336603 0.005625396764519235)
(5.000079945914425 0.0001793919374864962 -2.156789659247749e-05)
(5.004994254449669 -0.000651042550763504 -0.000816489348293358)
(5.005205789203465 -0.0003068330718199661 -0.001760898496635111)
(4.999881545889654 0.0007612823043946974 -0.000139318657150271)
(5.003289017650682 0.00418067934839437 0.007067758443704649)
(5.000383016186833 0.0001738661181971132 2.375654931304032e-05)
(5.000225593370599 6.565551338960751e-05 -0.000239279743851404)
(4.997817801330023 0.004266931757908586 -0.004263625379988196)
(4.996752380778559 0.008532968160616954 -0.003997537501003266)
(5.000265991497752 -8.680116108969978e-05 -9.813116370549373e-05)
(4.999940054959467 0.0008321044218870352 -0.0001939055010418586)
(5.000152322461743 -0.0003445294098929694 -0.0001240456390776612)
(5.001716549582103 0.0002109950484519459 -0.0005271574849545928)
(5.0006789722038 0.00022370361879494 -9.027299110438333e-05)
(5.005264568338164 -0.000640185233441609 -0.0006690252908542113)
(5.001395898682415 0.0004506008554041195 -0.0006328858580697725)
(5.000297700769029 -1.088923481762689e-05 -4.022272915220458e-05)
(5.000737007999454 0.0008034424083702706 -0.0006636042667002051)
(5.000208682828724 0.0002396728753532512 -0.0001361169091032256)
(5.003250865552868 0.0006937119522359936 0.004159094591160543)
(5.000200900665321 -3.011690440269553e-05 2.60178467572293e-05)
(5.024258217854102 0.005022162875553495 -0.01092083317528278)
(5.000280413268041 0.0005705437141871879 0.0001167600622690786)
(5.004707758937589 0.004087694881156328 0.005568151300042973)
(5.000238173219163 9.034733409832547e-07 -6.507345553348237e-05)
(5.000904374812668 0.0007151872026682723 0.0007408108982419407)
(4.999763844879192 0.0005599940428329874 -0.0001091219445238133)
(5.000468420711931 0.001192914162734326 -0.0005848449876457313)
(4.99998851194396 0.003595462817927748 -0.0002294713243784464)
(5.001355645877473 0.00139553288846426 0.00112619756602043)
(5.000074131432232 0.0007475064103372863 0.0002769188371171309)
(5.000180070572129 4.477434585246057e-05 -2.187197514874699e-05)
(5.013230972014579 0.01699643948748409 0.01670747967015146)
(5.004202795600185 0.001239291368856598 0.001493225653900656)
(4.996526090688684 0.004324089378846908 -0.0001298553462541157)
(5.002907939259481 0.0009952095140863695 0.001635784673017897)
(5.002501115211293 0.004727409746898436 0.009471005321399276)
(5.000187941294566 0.0004933789012845104 -8.742279674395508e-05)
(5.005204650702759 -0.000620614847798758 0.001321871453521288)
(4.997289089422718 0.0003649781906664272 0.0002265774174839396)
(4.998777364432884 0.001566751629772211 0.001270366913249677)
(4.996942738671463 0.00017867175157838 0.0001230464829621952)
(4.999775270448194 -0.002042738485676391 -0.0006262998118498008)
(5.001000883452948 0.01222234906132166 -0.0119851366585571)
(5.000232115086452 0.001824346891275485 2.211036432052594e-05)
(4.996714197534457 0.0005148339854926958 0.0003556774432822765)
(5.000195186502047 -1.739932538235052e-05 5.867369922874457e-05)
(4.994262350767039 8.662711213753982e-05 5.642393397862626e-05)
(5.000854366005557 0.00180445928494303 -0.01476767476337201)
(4.996298550589444 0.000685241450041299 -0.0001965747981625666)
(5.00071572912684 0.0005961734387472731 -0.0007716968682244953)
(4.999714384367504 0.002026660348141349 -2.896797254404167e-05)
(5.001341681771326 0.001995802827727751 -0.0006881464864556395)
(5.000130105307359 0.008197310576090184 -0.0057862416212375)
(4.999917540783556 0.005140961261082158 -0.007493699754350466)
(5.00011893806205 0.0001433803687702136 -0.0002825091964259753)
(4.995000932922563 0.0003337786765960564 -0.005059383058683149)
(5.00080801192891 0.001092618019840476 -0.0005805807854941354)
(5.000218302102409 -0.0003298948991053376 4.978746117586037e-05)
(5.000283877454499 -2.004595726362462e-05 5.772476304148469e-06)
(5.000150941011857 0.0001742611833681726 -1.217944699740111e-05)
(4.997715184712484 0.008068189030177529 -0.001825790426416321)
(5.000801174616231 0.0007478271049274758 7.778931414939771e-05)
(5.000199740212672 -1.053667701106762e-05 5.019909078575866e-05)
(5.000223131613287 -5.192777711985713e-05 1.116094574778311e-06)
(5.000183377795382 -1.454636173294602e-05 2.743506416421486e-05)
(4.996926303437291 0.007005192737770453 -0.003092147708680443)
(5.000186343866933 9.916463234951212e-05 -0.0001299844764669053)
(4.988850148559075 0.001061876751942457 -0.0002330915694412431)
(4.998248889391382 0.0006569693348132276 1.289178275551077e-05)
(5.000245825685733 0.0001208019276391407 4.563583286081434e-05)
(5.000245503531087 0.0001398271760154791 -2.880453259495731e-05)
(5.000349326028625 0.0005770330302742792 -0.0006029482243031692)
(5.00026787630832 0.0004624160241403735 -0.0003762611445922576)
(5.000255679167531 -1.30008620443217e-05 -2.923505379918997e-06)
(5.000139464629406 0.0002204750947524076 0.0001329246684784569)
(5.000202995397774 -0.0001840035451957794 -8.832834757133719e-05)
(5.000417484913188 5.253857153668889e-05 -0.0001223927654373796)
(5.000010069142666 -0.0002304452664930423 0.000191133133058623)
(5.000302752360567 0.0004315142398543816 -0.0002719096026596058)
(5.000306036553918 -0.0002184101382224015 1.534344638948039e-05)
(4.997895591222989 0.0003127212771348862 -0.0002791327880665371)
(5.000208950977983 -0.001852560824460831 0.00010192927594668)
(4.999946982032746 0.0001868511928736456 6.990682670324299e-05)
(4.988384350826353 0.01085318526610511 0.04169205410674356)
(4.998030609402146 -0.000203097164816852 -0.0001593924938285914)
(5.001219485838851 0.001050109340137658 -0.0008976255927277129)
(5.00007517383159 0.000611996020959109 -0.0001562188922951579)
(5.00036326041063 0.0008902121785539152 0.0004120504166754264)
(5.002141973154259 -0.0004146322451582318 0.0026468547335276)
(5.000240957707364 5.498136100994265e-05 1.950156438563616e-05)
(4.998214877413952 -1.111722480731476e-05 -6.167565557897692e-05)
(5.000530750576167 0.001972547780134865 -0.0005577854664673423)
(4.999978782569001 0.0002970653380789972 -0.0002306198041095777)
(4.999816864729254 0.0008055976202219811 -0.0004009597069685506)
(5.000628386961466 0.0004027838663846981 -0.0001750832897854061)
(4.996938073553848 0.003590421783958255 -7.390307439689976e-05)
(4.999176184785898 0.001478773102681264 -0.007243150698959146)
(5.000033096304076 0.0001664481406100056 4.343511874661582e-05)
(5.000397902397833 -7.473744084172003e-05 -0.0005290693091095857)
(5.000660972373644 0.0005287333705471062 -0.0002123123976140154)
(5.000227467494019 -0.0001046444490476979 -0.0006563909264989556)
(5.000154607006723 0.0004599868504794581 -0.0005851881428145804)
(5.000220231517436 0.0001459095394762393 2.698989307971112e-06)
(5.004809360527904 0.000457716901773995 -0.0006436386695915024)
(5.000134175398093 -5.706079632833332e-05 8.525646511382003e-05)
(5.007521691086539 -9.329459291044277e-05 0.001401861122114397)
(5.000430256224114 0.001284177886188445 -0.0007532915697154353)
(5.000074442051593 0.0007261076411220633 0.0002564465876409268)
(5.001063340098169 -3.366023906977042e-05 -5.016110367655666e-05)
(5.000241786690699 -2.389536998596939e-05 -1.332370051312794e-05)
(5.000288542150922 0.0003738003275471738 0.0001390016425726115)
(5.00009083273067 1.722476180629088e-05 6.536164577359734e-05)
(5.000289004094689 4.712214310514717e-05 0.0001614353160094346)
(5.000220281358162 7.160031541435802e-05 7.115931953056405e-05)
(4.999707766306408 0.0009343331210241078 0.001926413377315782)
(5.000064343252447 0.0001761656807442674 0.0001214441932949559)
(5.000178488961112 -0.000165046053305543 -0.0001088889333729952)
(5.001223675823194 0.0001173715948513067 -4.093710357383869e-05)
(5.000807148206397 0.0003241165636394076 -8.612902801759789e-05)
(4.969789830958122 0.001015711818322206 0.02905200010367094)
(5.000298073835613 0.000624186482859611 -0.000294387149584951)
(5.000112018339982 0.001288241741039382 -0.0001858086203535365)
(5.00023957645973 -1.712655058868082e-06 -4.932231899142437e-06)
(5.000399445274422 0.0007513008486793575 -0.0002615402222857281)
(5.000334931756854 0.0005471135597186099 -0.0002963633099263756)
(4.999987795072099 0.000232438312213489 0.002315974082599766)
(5.001182660732815 0.0006601836114942854 0.0004162184765289627)
(5.000219134825215 -5.115576822527278e-05 7.230893593349524e-05)
(5.000431318769735 -0.0007388450611402989 0.005344896478698132)
(5.000256811115028 0.0005259976908299875 -0.0001968443563573554)
(5.00029775670942 0.0005879379781415394 -0.0004488104542768742)
(5.000165337721673 -0.001531191681535021 -0.001378829186292069)
(5.000381945149041 0.0003396872811352421 -0.0003514033712865423)
(5.000271698094668 0.0005010315879635062 -0.0001180474174409111)
(4.998766394780546 -0.0002737812665226709 5.472033840550904e-05)
(4.999804543038759 0.001623623635855207 0.005682775588079831)
(5.000454055571531 0.0006949074291176791 -0.0004359546352314689)
(5.000583973604226 0.0007586609966425572 -0.0005799024449853845)
(5.002988165880134 0.0008116385980398719 0.005322032330466367)
(5.000529533714165 -8.316511915698004e-07 -5.393534548497476e-06)
(5.005366156009035 0.00400380026319436 0.00389436598607325)
(5.000001585085328 0.0003480992339962052 0.0002116926533332019)
(4.999790152134516 0.0006412276995468162 0.0008051242294073893)
(5.000385135670258 8.745464921847402e-05 -0.0001110379254586575)
(5.006436648633754 0.00186820573561655 0.002312681753033259)
(5.001024280931246 5.996397978960169e-05 -0.0005800241114863849)
(5.007043982643867 0.00151488949343142 0.001584443909649216)
(5.000521649395557 0.0003631888611462261 0.0002286805809559459)
(4.997779041184476 0.004348611553728487 -0.004762991845331233)
(5.000249694294816 -0.0001593527763442014 -2.317066739516783e-05)
(5.006944314077302 0.00269800338255872 0.001710903298533653)
(5.00139544059215 0.0006750249800720174 0.0003641167154127887)
(5.004641428985219 0.001161053683916638 0.001726952910463477)
(5.000521970641869 6.984128521341006e-05 -0.0001086493249102496)
(5.000576406350081 -9.494850315763204e-05 -4.724182319724547e-05)
(5.003785058054929 0.001183442707665425 0.002511324726249134)
(5.003152413422991 0.001766207786413719 0.003389277740595194)
(5.002630990022575 0.001616415624501146 0.003403218461079366)
(4.996165103798877 0.0004141571589566257 0.0002517734715146983)
(5.000225021446193 -5.686583044180279e-05 -1.899928565976414e-05)
(5.000296771798816 0.000311046770561681 3.781610338234018e-05)
(5.000200073085429 1.26158573064907e-05 5.53924624267902e-07)
(5.000150159895679 -0.0002931744444245614 -0.0001778739870413226)
(5.000202443524088 0.001607249528075163 -0.0005111878556216332)
(5.000580763920947 0.0001506671612254504 -5.692105435355352e-05)
(5.00034427819188 0.003585855230926899 0.003725937391974631)
(5.000201123145243 0.0001204685940874659 0.0001090294430838282)
(5.000196910678686 -6.202554782683623e-05 -5.27832783772691e-06)
(4.999909528426757 9.987584742744908e-05 0.0001779191635891318)
(5.001881672126662 0.0003529714455755261 0.002323881177792469)
(5.000157950192827 0.0001491560894548248 3.453351819149182e-05)
(5.000270693697655 0.000355191129007924 -0.0003815909686055184)
(4.99969811425231 0.0002635907943342574 0.000664261925454372)
(4.999976708576562 4.161722568458927e-05 -5.993774550015794e-06)
(4.993208314968478 9.759232534502675e-05 0.0003306968761621192)
(5.001066626474877 0.0002592606563982571 0.0001020167933248712)
(5.000172561530663 -6.257148210053764e-05 2.789927607243682e-05)
(5.00025459585666 0.0006823133815107271 0.004605000237984144)
(5.001015309529766 0.0007791639547529824 0.001309674577039523)
(4.999980501439381 9.398257144720197e-05 7.161979913488666e-05)
(5.000250406065675 7.604549642654533e-08 -3.38036934632998e-05)
(5.000763838424242 0.0009428530365460981 -0.0004832725583034308)
(5.000813576192593 0.0009703697044048903 0.000837553462989456)
(5.000184343389374 -7.057116936527532e-05 5.905127339661264e-05)
(5.002409901433942 4.293437388159206e-05 -3.497943835824223e-05)
(4.999528886263482 0.001069849805720277 0.001134608100183535)
(5.000111576570307 0.0005557814924676126 0.0003553067284113919)
(5.003381759097014 0.001295660229197391 0.0009663582904877246)
(5.002260024214312 0.003119986321998257 0.004944966073902865)
(5.000505048470198 0.0007910909097297415 -0.0004178512086450408)
(5.004284054607225 0.002415555607051756 0.005426764838250614)
(5.000101425932116 0.002097620738772568 -0.0004330245319035474)
(5.000352600453998 -1.347687840681846e-05 9.031849027401674e-05)
(5.000666365642592 0.0008535533963127339 -0.000216508074653061)
(5.0059643853415 -0.001149368594076551 -0.00177440057109688)
(4.998315079964407 0.003439339604488764 -0.001555712915052833)
(5.005723356070047 0.00168359248478349 0.002463602940795656)
(5.019596184534323 0.03119697293623635 0.005039201908655998)
(5.004397738594321 0.00130347591675749 0.001974251778169862)
(5.004284460940412 0.001804112345994296 0.001308466228341496)
(5.003715143114055 0.001120042392898534 0.0008125602214808578)
(5.000821601060752 0.001623579684203083 -0.00130214044029719)
(5.000580872963167 0.00157652097475151 -0.0008090073428951942)
(5.000616158711584 0.001244693883014258 -0.0009689043941815696)
(5.000398432077553 0.00112507027517301 0.0002374897189668483)
(5.000326770040614 0.0001405876895492819 -0.0007211257452151619)
(5.000371881438932 0.00065311185551408 1.325088977410077e-05)
(5.000211557161302 0.0001062056570863099 1.372237731229922e-05)
(5.000399592292453 2.848168565803576e-05 6.427718360647225e-05)
(5.000084854969732 0.001899060503098322 0.0006281532795880219)
(4.999696279204967 0.001584889465365121 -0.0013908641849263)
(5.000134234841912 0.0003648972960203602 0.0001363958330171366)
(5.000198160788117 0.001494405477056705 0.000829081373720584)
(5.000020492551746 0.0003104838722384805 -8.824725157094016e-05)
(5.005292916100269 0.01142811314677513 0.01269042498610687)
(5.000112377966463 0.0002359945424335293 -6.736329028651768e-05)
(4.99973672876679 0.0005191055946473468 -0.0003120917632492932)
(5.000014684052557 0.001906447536763756 0.0009988783406940365)
(5.00026716073341 0.0001036649148770272 -0.0003824249941959757)
(5.000450155049408 0.001373857673919473 -0.0001719105210055126)
(4.996204535777739 0.0009810345779695958 -0.0001924950496394759)
(4.999790895824743 0.002091383080529478 0.001060281870675656)
(4.994187376060898 0.001140706379742913 0.002769791528925278)
(5.000227435260451 4.241751452710155e-05 2.788368549836611e-05)
(4.999352661087932 0.00102537927204875 0.002454263005922322)
(5.000165000483454 0.0003320050844652904 0.0002213857316846017)
(5.000366281890576 0.0001411080086724068 -0.0002357900569003653)
(5.000659512175454 0.0002482557182178013 -0.0001426753565076184)
(5.00095549697865 -0.0002673777753091953 0.003767789932081916)
(5.000084285862228 0.000146421853686741 -2.514561700028723e-05)
(4.999935222085809 0.000274152826388381 -9.814789334775305e-05)
(5.000716753094557 0.001433234049605029 -0.0006823493976544414)
(4.999590657304891 0.0002132009720615856 7.932229008947551e-05)
(5.000193321942495 9.785134039292108e-05 -2.241636178503397e-05)
(4.999828697940339 0.000308217547963229 -0.0001972403568545204)
(5.000029402530949 0.002045644885363937 0.0001854622403439769)
(5.000385456976687 0.0004884608080793569 0.000213132942642577)
(5.000632553564282 0.0003801432777614071 -0.0002226604082796729)
(5.000012816011155 0.0001622693078735154 -2.574955870757529e-06)
(4.999777521606797 0.0009459681910844105 -0.0002529418663964391)
(4.999896736776713 0.0004035111844406706 -0.0006123919129345164)
(5.000444397107941 0.0001231260946259826 -0.0006166608495519113)
(5.000048056124279 0.001040320072543171 -1.196515255670295e-05)
(5.000084849918903 0.004147238595706129 -0.0002000977382277938)
(4.999985444102948 0.0006226920633313903 0.0001837183288659451)
(4.999692862395946 -9.703907733527027e-06 0.003842894420927219)
(5.000288072566111 0.0005816283954192378 -0.0002799272464629133)
(5.000385486292371 0.0003928176638736385 -0.0003523878759322601)
(5.000088787910149 4.847520952439143e-05 2.870537444195835e-05)
(5.000463016711036 0.000377392169128759 -0.0003320852825215734)
(5.000371781527446 0.0003001010638867078 -0.0001882854759519958)
(5.000072800641646 -0.0001564724884339776 -5.726003249513493e-05)
(5.000258280588152 0.0007218828861963264 -0.0003060718155878066)
(4.999911156838939 0.0001802047801512607 -2.143455220559447e-05)
(5.000182617798488 0.0005270515086669374 -0.0002260734800841817)
(5.000305256398087 0.0004845495976849675 2.398582985098548e-05)
(5.000091912937594 0.0001741777687397495 -6.997677606894303e-05)
(4.995971741600902 3.343209513531347e-05 -0.0001179037135897787)
(5.00000225376361 0.0002268772623727612 3.563394369297216e-05)
(5.001019620953033 0.001323001946629114 -0.0006814491173973801)
(5.000335617242668 0.0009904195765714429 -0.0004069337272353455)
(5.000259493177649 -7.181049388340441e-06 -6.910260677382441e-05)
(5.001187824339111 0.00154474507087687 -0.0004137509109479423)
(5.001268225392453 0.001095013399747365 -0.000772575643829781)
(5.001931134671744 0.004843794836928063 0.0003225681063081076)
(4.987892882283246 0.001103887220017841 0.0004581958580529929)
(5.000925152905931 0.0007008592321891608 0.0005757565107732457)
(4.999786276613008 0.0001994187071789391 -6.12588021688399e-05)
(5.001196264090953 0.001849766829361409 -0.00184019471516125)
(5.00071337654707 0.001219592441984521 0.000329145926910055)
(5.000196698183037 0.00021005676008723 -0.0003932054462076243)
(5.000494998816271 0.001140108401108621 -0.0003930512011592848)
(5.001646824903371 0.0003293107444550671 -0.0004117519276307652)
(5.000355661569513 0.0003899689139232087 -0.00251195017745307)
(4.99062619247732 0.0008684611620043998 0.0002040111426683671)
(5.000302833787465 0.001457900120309658 -0.0008130548631692556)
(5.000498948502249 0.001760399347371028 -0.0007555376273264864)
(5.000316591185942 0.0008928514861070838 -0.0007570369081950163)
(5.000006690559465 0.000139454341662561 5.67041966558547e-05)
(5.000047186350181 0.0002374913404947051 -5.50052286262539e-05)
(5.000049717225614 4.090523005892195e-05 9.572020955640264e-05)
(5.000272834962154 0.0006444416900317067 -0.0004628692410921011)
(5.000142306732122 0.0001234316345412811 -0.0001073157757776684)
(5.002215462906429 0.001931643642090619 0.0004316755250205566)
(5.000001895533754 0.0002262481596482685 1.475994783324743e-05)
(5.000745025513035 0.001866722074595884 -0.0005547090185210308)
(5.000317188229028 0.001294700616678251 0.0004966720022437731)
(4.996944092731438 0.0001652884654702627 -0.0003689482300196263)
(5.000154692148707 0.0003858038081076973 0.0001273230515495148)
(5.000138821709578 -1.236119981727691e-05 4.775350301924943e-05)
(5.000425908325147 0.0005257381206556998 7.550248132737367e-05)
(5.000170236892433 8.320761505865415e-05 1.079930675060861e-05)
(5.000355416805028 0.000376002659225713 8.813866828345631e-05)
(5.00039947629456 0.0003211849339211947 3.746084697003814e-05)
(5.000101984839824 0.0002880000067088533 -4.29676050581381e-05)
(4.99946435761716 0.0009089061273667475 0.001398135761654345)
(5.000393947995574 0.0004453713070274263 -0.0008684072885314816)
(5.000351359651143 0.0005949135829289997 -0.0001563445601409141)
(5.000349851813556 0.0002966540932662173 4.732323455035536e-05)
(5.000123903125399 0.00066865342350876 6.972738745299583e-05)
(5.000538630914807 0.0003210306030952458 -0.0001315524151198892)
(5.002444313305128 1.286237505704482e-05 -4.963022516715088e-05)
(5.000160594434422 3.85254158809098e-05 -3.08342432345681e-05)
(5.000678595391818 0.0008847001017116903 -0.01177235869629551)
(5.000332576883638 0.0004431650043841954 9.98215618342001e-05)
(5.000369654533068 0.0002722834456186148 0.0001015889026169792)
(4.999574451430299 0.000801864737182739 0.0004432467231415753)
(5.001884218238488 0.002518895223996461 0.001298922261346272)
(5.00041209393143 0.000307627607965185 3.985671282675774e-05)
(4.999807221845131 0.000666732415963943 -0.0002081309203316663)
(5.000250335720068 0.002163035835433509 0.0005713266444111559)
(5.008669915275236 0.01118673379459689 0.003843255622866546)
(4.995969445796848 0.0002038922538349735 0.0003690937624513251)
(5.002156754172354 0.0006163877982732613 0.0007372550045118222)
(4.999670159942311 0.0009910766286373948 -5.944356225202941e-05)
(5.002555271938696 5.965837994192311e-05 -0.0003266015383555658)
(5.000401081664841 0.0004349769223615821 1.291409955613676e-05)
(5.000283018502642 2.569803883060371e-05 -0.0002049141622527633)
(5.000247150657072 -7.34956042388529e-05 -9.319050718869934e-05)
(5.00022097653795 0.0002238115719518775 -5.100502888781313e-05)
(5.000290050130313 0.0002814238957830054 -8.700151954124554e-06)
(5.000319815139194 0.0004507167253346399 8.611105644738155e-06)
(5.002395643135324 0.0005402424608206681 -0.0001847828294280016)
(5.000465619468822 0.0005348001469737581 -4.152783695955691e-05)
(5.000680360800341 0.0001933844222665056 0.0003177955917004229)
(5.000040144795491 0.0002050161764892112 5.065317330254806e-05)
(5.000242748520329 0.00131461733137109 5.793205053220161e-05)
(5.000186930616867 0.0002327368670191069 -5.051062760770847e-05)
(5.000183524372655 0.0002924493390545098 0.0001100931851979059)
(5.000278604653417 -7.270130854957401e-05 -2.36430359166689e-05)
(5.00041337058444 0.0002270559543969773 0.0001914801531488894)
(5.000466851676517 0.0003410674613470196 -5.94266277433443e-05)
(4.999975459596318 0.00309693030846649 1.93073930701675e-05)
(4.996816370484389 0.0004207691994751726 -1.179646497930026e-05)