/*--------------------------------*- C++ -*----------------------------------*\
| =========                 |                                                 |
| \\      /  F ield         | OpenFOAM: The Open Source CFD Toolbox           |
|  \\    /   O peration     | Version:  v1906                                 |
|   \\  /    A nd           | Web:      www.OpenFOAM.com                      |
|    \\/     M anipulation  |                                                 |
\*---------------------------------------------------------------------------*/
FoamFile
{
    version     2.0;
    format      ascii;
    class       volVectorField;
    location    "0.6";
    object      vorticity;
}
// * * * * * * * * * * * * * * * * * * * * * * * * * * * * * * * * * * * * * //

dimensions      [0 0 -1 0 0 0 0];


internalField   nonuniform List<vector> 
19632
(
(0.003666288161432919 0.0009055152503276324 -0.0001612235231347014)
(5.377906798611517e-05 4.288627900509429e-06 5.461815260960257e-05)
(4.808674656694288e-05 4.570325840930387e-05 -0.0001146028813624747)
(-9.865642664898608e-05 0.0007353737591558894 0.0002729216553982447)
(0.0002872650467740651 -0.0002222295778868494 -0.0002196837205117834)
(-0.0008730848888391842 0.001903287503281718 0.0007793284326832114)
(-0.0001107213605980997 -0.0004590426068870574 -0.001757250931552596)
(0.0005771713613156041 0.0003711935174928883 -0.0001282733289663542)
(0.0003429365465270016 -0.0004607859012677278 -0.0007303708912750483)
(0.000654662639987358 -0.0007985219314614871 0.0004536845339301006)
(0.0005201880370575096 0.0002115786916764526 -0.000712215042321765)
(0.0001800648394942963 0.0008723624106340079 2.257140367688455e-05)
(-0.0006840725029134528 0.0004835923954890502 -0.0005235512581287004)
(-0.0004818186078247724 -0.0002719558912819885 0.0002201644264950585)
(0.0001108901103708942 0.0001441419546410993 7.543316632542214e-05)
(-3.906247811916828e-05 3.358208625984161e-06 -7.26638353184676e-05)
(-1.709474526349773e-05 5.140889154866456e-06 -1.525600570134507e-05)
(-1.263069281355858e-05 -3.811151441147146e-05 -5.422523342582383e-05)
(-3.749481362603925e-06 -2.629233008971133e-05 3.303358528363951e-05)
(-0.0001157575910211971 -6.861117229242486e-05 0.0001136098470263069)
(0.000256693536536683 0.0003224171079105001 -0.001136829062804827)
(-0.001931876013452565 -0.0008622876860305412 0.001425497821333335)
(0.0001039195761183277 -0.0005409699766993644 0.0005512041477709587)
(0.0001038354594293634 -6.655545712253725e-05 -1.029798452051676e-05)
(-0.0004794557695555935 5.29256301572193e-05 0.0001052074157729476)
(-0.003303839322639985 -0.001044954224450969 0.0009604961753816921)
(0.001099569110509198 -0.0003594445626769066 0.0001412630538365028)
(0.000330213660576221 -1.720761072569595e-05 0.0005836727973547919)
(-0.00178114943567325 0.0013226289561004 0.0001613313606784708)
(-3.326958617680097e-05 -5.887243144666286e-05 2.191438378043647e-05)
(-3.162289039999384e-05 -1.611621013745091e-05 -2.412890976782922e-05)
(-0.0004171686866843558 -0.0003968775235950414 -8.634351249131083e-05)
(0.0001412282374060048 -0.0001680638963970889 5.311187048851097e-05)
(2.204323644569764e-05 -0.0001109993045867696 -1.870735913720498e-05)
(-2.606083685388874e-05 3.706153317469906e-06 -5.52636401596919e-06)
(0.004950011220285673 0.001816095540304099 -0.0001763555131444027)
(-3.67546078763543e-05 -0.0004121268897927522 -0.0003935489028827079)
(0.001357989111152851 -3.597919248020239e-06 0.001022504756195986)
(-0.0002946106130153251 -0.0001548826673868148 -5.771102961094451e-05)
(0.0004589418162674544 -0.0001237143060810429 0.0001205209050661778)
(4.304366346069476e-05 -5.555267619925925e-05 5.561401041909321e-05)
(7.8306949279578e-05 -0.0003189346123884844 0.000895947434581362)
(-0.0004515657172516338 0.0009015071070721893 -0.0009823339562206013)
(0.0001141467586731611 -3.5574209519214e-05 -2.825465888029192e-05)
(1.028246681510961e-05 -4.054858378477888e-05 -4.319824310314768e-05)
(-0.000202331160390703 -0.0003426866571498126 -0.0002866553283750843)
(-0.003882242594923882 -1.479762857418629e-05 -0.001912879271957837)
(0.0005834413316920009 0.0004406570542939812 0.0004455256310169155)
(-0.0005638476337630307 -0.001430030464605854 -0.001540433721114418)
(-5.51115429620129e-05 5.457898380444888e-05 -2.433338965445753e-05)
(-0.0004677051898783308 -0.001442578349039568 0.0009770590425661511)
(0.000127647162247038 -0.0003370342610082688 0.0001345155178718085)
(0.0006313993594257832 -0.0001290608761198659 -0.001135478422883092)
(-0.001338122592500476 -0.001275461358542123 -0.001077600079208622)
(-0.0001546559676591091 -0.0001178326042676064 -5.542102900227482e-05)
(0.004440160527290699 0.002263657217239664 0.0003113005233510342)
(-0.0007038253263520269 0.0002226977966032289 -1.489472311635022e-05)
(-0.0005574974284339771 9.748916427189698e-05 5.766749035803392e-06)
(0.0001168227271763971 -0.002442570567049933 0.002957017243959927)
(-0.0003490528571286557 -7.606215789599442e-05 0.000573067757470427)
(5.297729907672356e-05 -9.225627668240471e-05 2.739135318787084e-05)
(0.0002492780488333484 1.11913754866208e-05 -0.0002842641926140192)
(-5.074210833720017e-05 5.260957607605045e-05 3.064544845174352e-05)
(6.930068719114102e-06 0.000471623975660025 -1.111361952761373e-06)
(0.0002025809052841228 0.0002460163730388647 0.0005145772823681973)
(1.489416126545692e-05 -5.371138502821125e-06 5.264877110342116e-05)
(8.534779560655234e-05 -0.000148913131740628 5.971972454512437e-05)
(0.0002203096564664335 0.0005142990487514039 1.694609256668046e-05)
(-3.356404229709046e-05 0.0002752559786372307 9.786392226539273e-05)
(-0.001052307327269662 0.002319392660960827 0.002301223345945514)
(-5.639458532715476e-05 -4.557892557742994e-06 -1.333831233267918e-05)
(-0.000639780222993205 -0.0006723236899632929 0.000366002644112348)
(7.617527595513911e-05 0.001593888223083792 -0.0002652684593595913)
(0.001685097549710801 -0.0008308795743271191 -6.256046313470661e-05)
(-4.626223522641019e-05 -8.103329923734367e-05 2.950321651915517e-05)
(0.0003580870137355001 -0.0001211733707012503 0.0005074653588106555)
(8.836652406760358e-05 -0.0005227788474892439 0.0001585221967884603)
(-0.007199606712117056 -0.007582660058658288 -4.254003229743755e-05)
(0.0002483026618644129 7.641235156692321e-05 8.756925195880664e-05)
(0.000488629416034075 0.0004037082901427985 -0.0004949920996408519)
(-0.0006534849024911617 0.0004602005098605972 -3.436627884232047e-05)
(0.0003374869225579692 -0.0002892424680860464 0.0004991819101962278)
(0.0002025921556732441 -0.0007122342577366842 9.597638119663671e-05)
(-0.0008086775908269276 -0.0001529588973852653 0.0002430149597389)
(-7.079129067657903e-05 0.0001689682684608507 -0.0002605750847281641)
(8.02882302309149e-05 0.0001291982386149096 0.0001463034883565491)
(0.000422564211454244 0.0006444019693113823 2.163756910663405e-05)
(-0.001420972480337196 0.0006054592289900455 -0.0001204831319139849)
(0.0003405320335837219 0.0006078317863941691 -0.0008047091386431482)
(-0.0001371964688675918 0.0002905728932996427 2.719191632977958e-05)
(0.002541732276489273 0.004529164900304757 -0.001705398480677433)
(0.003075214149683802 0.000580898541353224 -0.001588874554002906)
(0.0007914105216762133 0.001317671244382366 0.0002835597218823166)
(-0.0008773416765305731 -0.0002911444876382871 -0.001375100494916243)
(0.0003115250791123994 8.346001120933982e-05 -0.0005425213189787655)
(0.0002487008737069623 2.307414481371754e-06 0.001038159339164152)
(-0.0001322235744083049 -2.433766447979707e-05 0.0007957165579202947)
(-0.0006520607910515631 0.0001412829076596156 7.833207621586522e-05)
(-0.002491542961329935 -0.001349333750826196 0.001119745891142264)
(-0.0004383696931834881 0.0002674204765113857 8.157921841101846e-06)
(-3.88706935217576e-05 -1.087539363323724e-05 0.0001120344851352731)
(-0.0001591676097420254 0.0007355064793073476 -0.0009212171569569932)
(7.267000228756557e-06 -3.672577673960838e-05 -9.876197431584801e-05)
(-0.0001174177881010066 -8.070490128210729e-05 2.567631504477453e-05)
(0.0003207608219076214 0.0002932675439185059 -0.001098920394428845)
(0.0003685532721398704 0.00010460343098419 -0.0007269340956402212)
(3.943686424968048e-06 -1.857966872228416e-05 -3.27949077053821e-05)
(0.000478524685241058 0.0002420929991865357 0.00021508836150694)
(-0.0001664036567374691 -2.614467880494726e-05 0.00026928844824032)
(0.001220062720579049 0.0002323250937198332 0.0001098166439489227)
(0.000273394167516327 0.001059470153411115 -0.0003340009486208144)
(0.0005471716719150821 0.0007370578709405694 -0.0008491265319527291)
(-0.0003648638716789642 -0.0001326461067680087 2.587120420995001e-08)
(0.000510437394022667 -1.046841696844347e-06 0.0001511918763795833)
(-0.00114250524989594 -3.164577206206929e-05 0.0003063943222144867)
(-0.001807073237031729 -0.001311501633301041 0.002776053406912008)
(0.0009710911337082607 -0.0001396018746379334 -0.0001882309668414984)
(-0.0007917624754630954 -9.804885462234218e-06 0.0004872089413077426)
(-0.001105221093342725 0.001367112392575789 -0.001675868153504336)
(-0.001667843729201826 0.0003955448804038157 -0.0006234262848845291)
(-0.0002972947478519095 0.001269361766229464 0.0005894216945512472)
(-0.002593910041695749 0.0004013880079444791 4.825630520669433e-05)
(-1.785043702279212e-05 -2.272768906366382e-05 3.578551708547543e-05)
(-0.000621391363402973 0.000295160569927529 0.0004494325697116436)
(0.0004431598863788588 -0.000384768033196116 -3.601045440091019e-05)
(4.210154965504978e-05 9.861950981734168e-05 -3.173094791341636e-06)
(0.002420264628421917 0.0004083468917234693 0.0001291461437290892)
(-7.356278907069967e-07 4.101598889475628e-05 -1.945772444780797e-05)
(0.0001258546693347109 -2.05095208122686e-05 -0.0001101958140519101)
(-0.001043102590940589 5.387475704460038e-05 0.0001360522329399604)
(-0.0006639570323613438 -0.00018725669587905 -0.0007322926402133954)
(-0.0002836137051271025 -0.0002181312521666784 -0.0004089418775818615)
(9.35268968608186e-06 -0.0001071399922628739 2.238614403760904e-05)
(-0.0006258552971504869 -7.281388805740304e-05 0.0006177213789519645)
(-2.447260337506947e-05 6.853649822917331e-05 -0.0001243411123176121)
(2.916260035263339e-06 -0.0002550058202589479 -0.0002824573485115381)
(-0.00069072337529009 -8.897319495379321e-05 -1.220839618500591e-05)
(-5.819636052879892e-05 -0.0004132064411179709 -0.000111171137570516)
(-1.022721275251518e-05 9.215510683982516e-06 -2.224844390894235e-05)
(7.100003861938001e-05 1.043371457751157e-05 -0.000132476036440566)
(0.0002512489473982987 -9.885682396012921e-05 0.0001599896858973542)
(-0.0016359068922215 0.004542641865018659 -0.005075634029207744)
(2.173672705784868e-05 1.92681242867257e-05 -2.164026195485379e-05)
(0.02067584210924036 0.005566602355692793 -0.001944372027126487)
(-0.0002122401501524975 0.0003566026022804105 0.0001355321690567386)
(0.001867804393213268 0.000833162405867321 0.001003550566796715)
(6.3477485412586e-05 -0.0001257264332855684 5.226158432378677e-06)
(2.04327404271556e-05 -0.0001197741868043186 9.284470108136323e-05)
(8.785149892261057e-05 -0.0001442076570264839 0.0002829675088330814)
(8.61746024013112e-05 -1.501943240266528e-05 -4.138426645966101e-05)
(-0.001405785105007314 -9.393645433768677e-05 0.0003360614437424447)
(0.0007171485927790425 0.0003504202904511235 -0.00126273848108797)
(-4.920438790210125e-05 -7.289450602862747e-05 9.303128485936929e-05)
(1.364536303271027e-05 1.046778245091035e-05 6.647011985745078e-07)
(0.03882288174595842 -0.009355612116798175 0.009857966303716718)
(-0.0002876641217364365 0.0001977773946318805 -5.574376659168818e-05)
(-0.002137019692103045 0.0007290986781630339 -0.0001944716778154217)
(6.834312899904789e-05 -0.0001108166659092872 2.419961714864136e-05)
(0.002301770187789382 0.002225786711209927 -0.0002259587305336984)
(-0.0001283023507568234 -1.586767627019516e-05 0.0001284680148609486)
(0.000910014321199701 0.001912509954761428 -3.018009739410215e-05)
(0.0006242084235285626 4.450108489169026e-05 -0.0003372223281161847)
(0.0004467480041337292 0.0002007004818072484 -0.0003890307468627707)
(-0.00093116208609769 3.861093624729162e-05 0.0002317512309257625)
(-0.000809343401558447 -0.0005332617349327984 0.001793881514296903)
(0.001541501553431783 -0.001907905921189659 -0.002021291231712452)
(5.75348371245606e-05 -2.058448387585196e-05 -0.0003831197800077192)
(0.0007639196259634641 0.0001754880038088838 -0.0002073267973823601)
(-1.148494062481411e-05 -8.150584909963676e-06 -8.00701560321315e-06)
(3.086513989641482e-05 0.0001970525929171345 5.857420176881204e-05)
(0.003143113114043531 0.002529885570703082 -0.0006109254546233791)
(0.001546023394791286 2.80294517359298e-05 -0.0003116564023290457)
(0.0003681009826084654 1.461837533418562e-05 0.0002532974385017967)
(-3.8119700376736e-05 -9.910895884643103e-05 0.001946812924635275)
(0.0003736195121776667 -0.0001499435400483325 -0.0002175866511776238)
(0.0007374240911454527 0.002575153567359808 0.0007444873413868379)
(-0.001550538417251403 -0.001349923658632942 -0.0009642865824623121)
(0.0003105325591432608 -0.0003775288160939052 0.0001819968869506492)
(0.002418311133285084 0.0001232795555477176 0.001207145759719603)
(0.0002542084141324478 0.0001831083795990222 -1.486184156924863e-06)
(4.515048672746657e-05 5.911690148638493e-06 0.0001427861717972121)
(-8.823224130692159e-05 1.996207516521078e-05 4.530694479101391e-05)
(-6.969974577694912e-05 6.448822495718006e-05 -2.776257582933383e-05)
(0.0004663909946883331 -0.001038592901253106 8.834938167999028e-05)
(0.0001529322972376537 -2.561026565610959e-05 0.0001390987419871337)
(-5.419734220388618e-05 5.350281597505792e-05 -3.008214141554112e-05)
(-3.528795751039167e-05 -8.06962330327762e-05 -1.081948239918048e-05)
(-6.593917205541921e-06 5.289173351999842e-05 -0.0001076270651776419)
(-0.001166963880671999 -0.0011310087945308 -0.001544919932539693)
(-5.290034410951251e-05 2.375211754175633e-05 -4.592962724776193e-05)
(0.0001608493288191393 -0.0003274986336778931 0.001338827823542696)
(0.0001337358771563406 -7.662526540378969e-05 -0.0007127406113637051)
(-2.049659212716525e-05 -7.003147111741677e-05 2.463324115179027e-05)
(-1.204341772185643e-05 3.677606332716892e-05 -1.028646480282699e-05)
(0.0001225277676301213 -0.0001004805736436165 -3.687559514914635e-06)
(6.810914982258481e-05 -0.0002558093333826542 7.456236159978963e-05)
(0.0001508802763332121 7.600611894265078e-06 -0.000278299355236621)
(-2.441644230628268e-05 6.915628728121005e-05 5.044693795937481e-06)
(-0.001705376936836854 6.179199150096489e-05 0.001459437596230966)
(8.128926719305428e-05 -6.775088587862896e-05 4.175205419377963e-05)
(-0.0004122481806029018 -6.119819675482542e-05 4.900536137176874e-05)
(5.838887597356294e-05 -2.487735261101566e-05 -3.16047684344424e-05)
(-0.0004236469161445613 -2.621073084760046e-06 -3.14026152082579e-05)
(-3.075342342578779e-05 -0.0005257747535962682 0.0007826994364228682)
(-0.001018929467123416 6.262950649217658e-05 0.0006434752622252079)
(-8.344867546082309e-07 -2.613731197452644e-05 -1.489881383804314e-05)
(-0.01346855511370974 0.006891279228757963 -0.007383272768779512)
(-8.0436023013714e-06 -0.0002456715378578981 0.0004696766868550019)
(0.00538991194748594 -0.0001167281002380263 -0.0008684732767670084)
(0.0009384506800307383 -0.0001309977514357931 0.0003548728241624614)
(5.286092778943714e-05 -0.0001045305953598505 -1.301109380194732e-05)
(-0.0001881537254237487 0.004894251409216242 -0.0004815389653897087)
(0.0001203039954542173 -2.44074760337632e-05 -0.0003214012773556428)
(-6.250117844781698e-05 -2.628073665538854e-06 -0.000466013538151156)
(-0.0004608213113733248 -0.0003200684761868634 -0.001214834851056175)
(0.0001725771785127443 -0.0001879541154203476 0.0001713128114233145)
(-0.000125897910905333 5.38556172371085e-06 -0.0002169080273944268)
(4.813749990322659e-05 -2.633986026608026e-05 -8.290429798669496e-05)
(-0.001732333175725328 0.0006605767490165178 -0.0001632161498891856)
(0.00359744525366976 0.00212669176331798 0.0004428765816842843)
(0.0002472333463400369 5.362081726717108e-05 -2.812455970485308e-07)
(-0.0005943444479301579 0.0003144197564603975 -4.386544466436913e-05)
(3.358258057106203e-05 -4.983221561047537e-05 5.260975313411563e-05)
(-0.0006174500439008151 -0.0003612506092416805 0.0002685929091830049)
(0.0002983905526697456 -0.0004411431520096691 0.0001900375832534299)
(-1.311144693818637e-05 -1.174406841268285e-07 1.161197582922714e-05)
(0.0002858390756943355 -0.0002886639020225692 -0.0007111401675411897)
(0.001047403563541973 -0.0002287152693809301 0.0001999134473605232)
(-0.002736646095074867 -0.00109942027815971 -0.0001159217662989061)
(-8.306218939954767e-05 -8.641609201077517e-06 0.0001198119774575534)
(-0.0001781776879058215 -9.278974387555802e-05 0.0005228072439737989)
(-0.0001059852326772282 9.517868450732463e-05 -0.0001584501270800907)
(3.656276122168329e-05 3.647883225243484e-05 8.311094245704003e-06)
(-2.526514127999396e-06 1.5892644391773e-05 -1.37045909558555e-05)
(-0.0003749560337853932 -8.525986866564417e-05 -6.237318827177151e-06)
(0.0008512547712519344 0.0001492366536079001 -0.0001369235000451972)
(1.618631843948183e-05 -0.0004118468058899824 2.161104552246474e-05)
(-0.001918375851991723 -0.0003395629860521051 -0.0002179648913757182)
(3.489220907014709e-05 6.255368297358975e-06 1.511528561066223e-05)
(-0.0007659112720353065 -5.010036308551412e-06 -4.204405924668405e-05)
(7.190133599504198e-05 -2.753455459871118e-06 -5.398356137375272e-05)
(7.097311365782638e-06 9.027382567257136e-05 2.476447134063846e-06)
(0.01602100311499504 0.000281006909475176 -0.00504372353541466)
(3.517193784844697e-05 8.224507063088874e-06 1.687490471700609e-05)
(0.0001778634892009962 0.0002696880898899282 -1.950649177843265e-05)
(-2.601578725600792e-06 1.172934575582487e-05 4.964070782339377e-06)
(5.002755635607804e-05 9.209340173359242e-05 0.0001646351680205134)
(1.11464501908858e-05 -4.944485388020268e-06 -1.761496866693916e-06)
(-0.0003324532796737996 -0.002266312458966503 0.0003461223840914192)
(-9.655001153715884e-06 -0.0001006889444017481 0.0001077998463628322)
(0.0001100769461195136 6.725740846491337e-05 2.070410219821808e-07)
(0.002341471028926145 -0.0001089701511529532 0.0001932468421077892)
(0.0001863872848451025 -8.450616695492483e-05 2.560455492475262e-05)
(-0.0001574041162099515 8.118410969358729e-06 -6.952997986785585e-05)
(-7.565565205861998e-06 -0.0001049869002267628 0.0001449387316218766)
(-8.596187314334377e-05 -0.0001398557971838931 -7.529585250878689e-05)
(3.95133758865863e-06 9.977251738059407e-06 -1.490464851687468e-06)
(8.776035952342035e-05 4.330273755311475e-05 -5.663762583570317e-05)
(-0.003310217931998016 -0.0004459720649195107 -3.298611859278713e-05)
(-3.232927878976868e-05 3.712896110771342e-06 -2.043519121498402e-05)
(5.826021922506082e-05 -1.188564575040182e-05 5.142376068726286e-05)
(0.001521965303445002 0.000871609674649878 0.002102561858750861)
(2.685640180643213e-05 -4.195228526406776e-05 6.646635313802088e-05)
(0.0005040652574265194 -0.001879138487922801 0.0006877457712963142)
(0.0001355290252461197 -0.0001013686325874204 3.651835550079056e-05)
(0.0003474477692860774 0.001598163773653203 -8.30325573166359e-05)
(1.054756527600067e-06 0.0002683977348102663 7.778233986615545e-05)
(0.002820364755167398 -0.001886182348036562 0.0002436624797932447)
(0.0004063413410217597 0.000152497062235223 0.0001204888530746877)
(-0.0003473131967758762 0.001106582226075451 0.0003064771604581993)
(-0.0001403668027434044 8.455734098676276e-05 1.079403376693784e-06)
(0.002514344608107864 -0.0003798760218089652 0.001650038933053671)
(3.136624013936675e-05 -5.797444387075289e-05 9.240247764010432e-06)
(0.006096730849713474 -0.001111848935210034 -0.000987595352215685)
(0.0004003319991487453 6.704000856543686e-06 -4.039091141858973e-05)
(0.000143001908042735 -0.0005928949611366574 0.0002028466281342256)
(6.190018644416469e-05 1.616449137159736e-05 9.505086267408411e-05)
(1.227893539097123e-05 -7.166888179473093e-06 -9.430644524008794e-05)
(0.0009703385222781152 0.0002549317981524206 0.0002035430436855605)
(0.001735042662341366 -8.475436424180375e-05 -0.0005518012242773869)
(-0.002158475994290556 0.0008610687205319323 -4.613369847139819e-05)
(0.0002642200391903024 -0.0001914007182549901 -0.0002512814938622224)
(1.736020809555264e-05 6.372280823676747e-06 5.353744351294953e-06)
(-4.00047430387415e-06 -2.804322696772419e-06 3.497128310245144e-05)
(-4.155101346982927e-05 -6.131271120371351e-05 2.105582121805347e-05)
(0.000543380706101923 4.375716402296591e-05 -4.642616113795989e-05)
(-2.044676360648944e-05 3.168226522457021e-05 -0.0001505612308465859)
(-2.269956324124874e-05 -7.407660492724298e-06 -7.621483646419958e-05)
(-9.121252406048773e-05 -0.0005459392002496237 0.0007244072109665815)
(-5.668692868049177e-05 2.151798135069002e-06 2.318207355710785e-05)
(-1.638388111517012e-05 2.670725864661326e-06 -2.11618905307078e-05)
(0.0007273680721876997 -0.0001400134458769287 0.0003515700757904979)
(0.001080643111122248 0.0004241004351866205 0.00034188858276651)
(0.0004368035835684598 -0.0001065003237113021 1.525949907760204e-05)
(-0.002420582569487015 0.0001267490587020404 -0.001198150747102975)
(0.0004110477843710749 0.001037799007922943 -1.332372349443236e-05)
(5.224727659879708e-05 8.833681057561035e-05 4.353206224787973e-05)
(-0.0009345020483787304 -0.0009519859758113132 0.003196163445011046)
(5.072475322215697e-05 -7.907354692465293e-05 -0.0001147077325775345)
(3.404724938629036e-05 5.995664540565231e-06 -2.246383568486266e-05)
(0.0001253051640954552 0.0002042237101581975 -0.0002395257368239769)
(-0.0004805282380804824 0.0002385219259474033 0.0002979391113993303)
(0.0001688629564350395 -4.201046992983142e-05 -0.0001159718841095853)
(-8.825097104835269e-06 2.333682295715592e-05 -4.522778401993193e-05)
(1.694560401681081e-05 -9.183390269748147e-05 -0.0001541850380679369)
(-0.0001212059256965005 4.049670465942581e-05 -2.747977477871096e-05)
(-6.390833454591601e-05 8.500355381657231e-06 -7.922162523979048e-05)
(-5.950244558444636e-05 -0.0003391728423738867 -6.719238055967702e-05)
(-0.0002646586794519667 0.001137121125372794 0.0001479844576081843)
(-6.036852359747314e-05 0.0003555491712891554 5.476523810929107e-05)
(-0.0001357310105957638 -6.400260469102616e-05 -0.0003456378027705092)
(-0.00264585642648069 -0.001466027779292243 0.001067011987660412)
(-8.246867126176233e-05 3.252146841957477e-05 1.613596344938972e-05)
(0.001553056463763383 -0.001055778011970473 0.0003505047253130529)
(-0.0005544597956571374 -0.0004042636405686631 -1.692152330910659e-07)
(7.91247981354127e-06 5.408906927874351e-05 9.339565901922876e-07)
(0.0009858840124713545 0.0003172597143491057 -0.0001168469532919774)
(0.0008908848547452902 -0.0009199432586372842 0.001463587741460929)
(-0.0006728479960959032 0.0006285477339443189 -0.001387871362416818)
(-0.001392442347434949 0.00104241315110962 -0.0001626826993051361)
(0.0002121453676991319 -0.00170236019340527 0.009364877005331364)
(0.0004240549200546629 0.0002962506724843631 -8.685944348676316e-05)
(-0.001731648787679708 -1.818216952011132e-05 -0.0006184784406363385)
(0.0002747161989715101 -0.000181623801054791 0.0002869961245517259)
(-0.0002629618391343856 2.089753554657344e-05 -9.490061281285188e-05)
(0.0002616038570904099 6.095859896157377e-05 -5.714315987233646e-05)
(3.286413373169206e-05 -7.63747244309661e-05 -1.217633454336157e-06)
(0.0007361421812594848 -7.650566554050437e-05 -0.001585430553277648)
(-0.001076685680043354 0.0001121269924670721 -0.0001086277358830256)
(-0.0001401217419890039 0.0001382413800818931 -9.520000829174144e-05)
(-0.0004083069760837228 -0.000243624872690053 -0.0009498790910809057)
(-6.345656992648418e-06 1.851257916594293e-05 3.791326084366346e-05)
(0.0001955224986457389 -0.0001426673824921244 3.301961585044032e-05)
(-0.0008106402269732996 0.0001840331647793759 0.0005724464160419307)
(2.439418265115508e-05 -4.843655078679727e-05 -5.216828547022108e-06)
(-0.000182912468256766 -0.000134423825541454 0.0003386932102648007)
(-6.742360966861837e-05 -6.650293275995349e-05 -4.095085943360534e-05)
(0.002407958586010019 -0.002776996545772376 -0.00140755627515938)
(1.407510312378961e-05 -2.903513629406307e-05 -3.235988009864512e-05)
(-3.737788905101046e-05 2.983239498523651e-05 -0.0001897546417254044)
(-0.0001224518309935799 0.0001281730461413689 0.000123217961128284)
(-0.002142095604218113 6.954357327451447e-05 -0.0008854836909217218)
(4.889180549795922e-05 -4.606022528224024e-05 -0.0002916936226508389)
(0.0002567697283129664 -0.0001060402147929819 -0.0001050141670124866)
(0.0001656055358290447 -0.0001444606584030508 -6.856410606858755e-05)
(-0.0002200056745806088 0.001948919398082624 -0.0007310066034746682)
(2.266393807036599e-05 1.79945211147059e-05 -4.435025692593915e-06)
(0.0009559731316788331 0.00201327734096608 -0.0007533384604376885)
(0.0001000373304954432 0.0001481046228632872 0.0004693612368715054)
(-0.0006307763730813948 7.95351055483669e-05 -0.0007964161220324526)
(-8.320530213163456e-05 -7.928146114491032e-05 -2.753016805307733e-05)
(-0.000761952635988027 0.002434890886650682 0.001181628386397812)
(-0.0001109148998197843 6.635820474960731e-05 -5.580624297983681e-05)
(3.990231598760141e-06 -0.0001214975126923654 -5.464419730604084e-05)
(0.0002140720373975618 -0.000245414738830026 -7.000990469008007e-05)
(2.83563367290759e-05 2.021614771147642e-05 -4.561400905682841e-05)
(-3.199164899051461e-05 4.446575879971794e-05 -9.11077647995434e-06)
(4.209922145281634e-05 -1.733498644889703e-05 0.0004878884071755739)
(-0.0003147870354945962 -0.0001155728030882017 4.892391371779982e-05)
(-0.0001754992575374391 -4.271020794326987e-05 -0.0002236113910981432)
(-0.0001465233730243442 6.678683371888841e-05 -2.152817286672179e-05)
(-1.560452525867556e-05 -1.952692345062416e-05 -5.63453061879692e-06)
(3.673369198971023e-05 0.0005101826728454446 -0.0004637804769220854)
(-0.0004827736680189536 -7.394508111592267e-05 6.813040289330085e-05)
(-0.0005091029826822728 0.0002482022526199986 0.0001835598209896595)
(-0.00045652209611463 -0.000250583074150684 0.001495696574999914)
(0.0001061415781412792 4.063901242696039e-05 -0.0006617663481859327)
(0.0001671167120183527 -8.43864426104253e-05 2.648611355079531e-05)
(0.00126584477995527 -0.002022418816112332 -2.291539041068638e-05)
(8.548583591482984e-05 -5.383849285811974e-05 0.0001099664630871364)
(-1.213050074023916e-05 3.759295858756503e-05 7.959539610638302e-05)
(1.920091392350855e-05 1.148391505981523e-05 -1.553886388528702e-05)
(-9.07724710389396e-05 -5.07787877791453e-05 -7.718928564144929e-05)
(-4.461607692069911e-05 -5.807127268473996e-05 5.183858656603484e-05)
(-0.0001167651027122624 -2.263913617072057e-05 2.220410466763147e-05)
(-7.246556734768487e-06 0.0001781262297042852 -4.398815824975853e-05)
(0.0001336669525844133 -9.512246263632405e-05 -5.981672405691334e-05)
(1.772060316471883e-05 4.26128217320053e-05 2.453731731390214e-06)
(3.177679716865311e-05 -0.0002720183326514654 1.650908462224153e-05)
(-1.589831399658828e-05 -6.202206455648094e-06 9.675876369172552e-06)
(-0.0001051299089815402 -4.985226428893456e-05 -1.950700150142523e-05)
(-7.71113506667908e-05 -1.34706459136334e-05 -6.003049455867978e-06)
(0.0003110727353758692 -0.001330204148518986 -0.0002273898049838049)
(6.761405851562821e-05 7.531673931800888e-05 -8.550804502559104e-05)
(4.734068850412485e-06 -6.654465697697043e-05 -3.287990228776194e-05)
(-0.0002705968490776248 -0.0001737769945000427 -0.0001189779213401807)
(0.0001701239979862005 0.0002041766505189113 0.0002126453759429159)
(-0.0008391479799084386 0.002615634409464219 -0.0027948877791179)
(-0.0001624198667005753 -7.127336835524787e-05 -8.237184834174985e-05)
(-0.0001351437358096446 -6.33918253970207e-05 -0.0001793509959823028)
(-1.46869283737757e-05 0.0002637692364522055 0.0001445148755074887)
(-6.408354797165377e-05 -0.0003979286354958121 -0.0003088658672699131)
(-0.0001737040916499753 1.093733126974842e-05 5.17426051229936e-05)
(-0.001074335753504416 -6.321726971622823e-05 -0.0008302289887844933)
(-0.0004453049340782449 0.0003810176102585192 0.0001614486253444839)
(-6.838243081639295e-05 0.0001580848697985967 0.0001859895066253117)
(-1.302760089257843e-05 -0.003406350450726632 -0.0004023261552793005)
(-0.0004059973729213803 0.0002184862561929728 -0.0002322379730612567)
(0.0001576774319199916 -2.375436753057272e-05 0.0002683605771704855)
(0.0001533858587690249 -0.0003877002641590111 -6.432029281518076e-05)
(5.369604864031161e-05 -0.0002626123386542446 0.000118459802452807)
(-3.060618825487467e-06 7.399259274020507e-06 -3.722899766938115e-05)
(2.584777225228218e-05 -1.395545977852682e-05 1.871135794638908e-05)
(0.00020190380800333 5.371891255013879e-06 1.58736067190929e-05)
(9.768105093280636e-05 -2.940697999963238e-05 -0.0002433039324517921)
(4.68100852756402e-05 2.799398161361049e-05 -3.295772694002847e-05)
(-0.002142612215482225 0.002705883043279919 -0.001092338600854398)
(-2.478508603534048e-05 1.164581240696376e-05 -2.135129121393763e-05)
(1.677301420087887e-05 -4.253506092153933e-05 0.0001092124234384109)
(0.0003036990948974459 6.824238325580871e-05 -0.0002130148945343624)
(0.0002098210684798628 -0.0004817343336978435 0.0004902267660195475)
(0.0001163754812331809 9.983875102112382e-05 -8.334488889480908e-05)
(1.503795701006413e-05 2.380752376567564e-05 9.402845933858026e-06)
(0.0001377819842721436 1.030153330697816e-05 7.503820458267249e-05)
(2.260167695475851e-05 4.782415251627833e-05 3.56184542519409e-05)
(3.311895952263134e-05 -1.665317454379725e-05 4.581678032046953e-06)
(6.465257972964233e-05 7.498675372974476e-05 1.990960756763049e-05)
(1.344055224610163e-05 3.057435083793625e-05 -4.853051088925532e-05)
(-0.001725658706259503 0.00196421986305097 -0.0002318496681933408)
(0.0007023293029049794 -0.0004439699812530385 -0.0001227781384039355)
(8.101231302443824e-05 -0.0001609356659049368 0.0001789375114573497)
(0.0001623090271839999 -1.367567038457215e-06 9.508343149186575e-05)
(0.0008996875861266817 -6.583125435622129e-05 0.0004474466898950923)