/*--------------------------------*- C++ -*----------------------------------*\
| =========                 |                                                 |
| \\      /  F ield         | OpenFOAM: The Open Source CFD Toolbox           |
|  \\    /   O peration     | Version:  v1906                                 |
|   \\  /    A nd           | Web:      www.OpenFOAM.com                      |
|    \\/     M anipulation  |                                                 |
\*---------------------------------------------------------------------------*/
FoamFile
{
    version     2.0;
    format      ascii;
    class       volScalarField;
    location    "0.1";
    object      p;
}
// * * * * * * * * * * * * * * * * * * * * * * * * * * * * * * * * * * * * * //

dimensions      [0 2 -2 0 0 0 0];


internalField   nonuniform List<scalar> 
19631
(
-0.04225241077624914
-0.08682585437631848
-0.3645904165879643
-0.6043869532782457
-0.03166173593012783
-0.3517204132105794
-0.09033352668484408
-0.05159143614442219
-0.06179459346507848
-0.1677263165488675
-0.1260210776445375
-0.1355415054786878
-2.53034668081627
-0.1578525643172198
-0.1092923864633603
-0.02530315979382733
-0.7674548021686503
-0.08778577008490927
-0.03098184504730779
-0.07788095344051095
-0.06129925503378011
-0.1525053322177501
-0.1125996930500275
-0.7502493521629483
-0.1452980006813179
-0.12412056787231
-0.151079592814439
-0.1987002338775688
-0.8580968608911637
-0.1543650151036697
-0.09029596854645769
-0.6539394094905584
-0.07073331512483849
-0.1507569500137986
-0.3232682267659546
-0.1377205317830715
-0.1866512101017942
-0.1176253791443068
-0.1264438227838986
-0.2668512776601566
-1.071511462787634
-0.9229511758328682
-0.3373581486699554
-0.5283077766373917
-0.2183485298175081
-0.8482610248974419
-0.955477087739999
-0.2944923380398337
-0.2736042275752908
-0.05073910055958451
-0.04480120291569278
-0.1164050146349055
-0.4091014730484593
-0.1563971157564411
-0.1179896422687274
-0.4955290406973294
-0.303000152571162
-0.09363747474752873
-0.0984331131890574
-0.4611843957131647
-0.8991280920394328
-0.7468807495830421
-0.9828904272473152
-0.3887437105972664
-0.01660688956055615
-0.09841117889049587
-0.2051097900489218
-0.01917312510228426
-0.698731404291366
-0.07366175507954889
-0.6223512044384073
-0.5947301746136394
-0.2934558334631418
0.1329697324833598
-0.06578733834689361
-0.1275787100445585
-0.1552277722522674
-0.6466145209050473
-1.949700154845269
-0.1179687197150437
-1.416160889110217
-0.2728418318573834
0.2927479925034996
0.4132985065897396
-0.4352669740852173
-0.4114174759598989
-0.515603783815873
-0.4999444070400281
-0.7279892890499733
-0.4583607736607401
-0.6555219373011973
-0.08311989618735569
-0.6894516869454477
-0.6441689690295238
-0.4653376828018077
-0.601115810253177
-0.4600038956084585
-0.002028883684204794
-0.5358528083582768
-0.3188583720870808
-0.1250049861107377
-2.308317857679738
-0.1090901728453898
-2.295993271188832
-0.5867304530789063
-0.6704244016045445
-0.1688792189986684
-0.5024442426214434
-0.1595339665665916
-0.02117930871081048
-0.2022835348897042
-0.9994940443649695
-0.1225713809054637
-0.3960368824026169
0.03550859266559107
-0.6481286617424281
-0.4704762457766756
-0.1467114560849842
-0.9288827727104603
-0.03203739230956736
-0.03555351182551913
-0.1331541957737244
-0.1628648041855597
-0.1444553037285834
-0.1247592151988208
-0.1476311358688632
-0.06550268509703908
-0.1386896570127641
-0.1047240081847102
-0.1131531168938323
-0.01991842201385286
-0.5784785735421013
0.06188141306724963
-0.7447160197588366
-0.1889993774929944
-0.1569835763654236
-0.1691792090734525
-0.1517015134902105
-0.2094328246232758
-0.1781715261922676
-0.1103818898790538
-0.168429429548082
0.05971128255660541
-0.5654262029380835
-0.165628165679686
-0.2165728993108933
-0.1413828877868992
-0.1372688144491574
-1.123016503339292
-0.6962409125211448
-0.06519425271906777
-0.1264668957439019
-0.1119227868545729
-0.1322359581428629
-0.09020844447799144
-0.1733079845505903
-0.4224646892101864
-0.1804076736187787
-0.2757141063824514
-0.1643652261906514
-0.03980663694392918
-0.1095226410654176
-1.092256685503731
-0.1371695836846057
-0.1140993540683452
-0.1299042631875267
-0.1135240273664885
-0.09435254698487711
-0.1077774716219932
-0.5204874501941332
-0.1698065385060978
-0.2241616473052969
-0.1552688595986383
-0.1172599073409147
-0.1506439254624156
-0.1744789320874266
-0.09072286472055847
-0.7055054244129063
-0.1506069009394174
0.01094094586478839
-0.3297960959499559
-0.09387426928371995
-0.1190377188083729
-0.0883340995275232
-0.137899621884929
-0.288504006949829
-0.3775002483396381
-0.01223793219310725
0.01033103527425563
-0.1714747324891612
-0.09548927929248666
-0.4587827244310801
-0.232721532204606
-0.01370917929558928
-0.7274478487377013
-0.5543910711152223
-0.1231562425082399
-0.6195896481430408
0.3861181117160108
-0.3891075615484217
-0.07543109928311191
0.1988016326893567
-0.5083596182824087
-0.4954571587943847
-0.1026896875004022
-0.09276861816213812
-0.01785503578717102
-0.9117064888393027
-0.08210398320367886
-0.2698187109096658
-0.2115096404442156
-0.1265256375447308
-0.1898106253860852
-0.06813175534813186
-0.361177428340641
-0.5048719020285247
-0.4686845554308892
-0.3265180280706536
-0.1265630151089573
-0.02517119321288042
-0.08135036366864205
-0.4857209671345177
-0.1290942206022356
0.3783073493426027
-0.06180515390043152
-2.340071998211783
-0.3011825063660426
-0.2040485285169367
-0.3441991930622523
-0.4844968017601117
-0.7342197589899402
-0.5968685873909967
-0.6952330914468169
-0.8810196336014041
-0.04121293535175291
-0.1550715557536652
-0.2645202234163888
-0.4314216582179892
-0.4120139882390788
-0.441547239744463
-0.1197838250216124
-0.1458593813761211
-0.06365797650742767
-0.04321673481521228
-0.05130141157041875
-1.124095548525728
-0.113196906152542
-0.4341653225461372
-0.5199736756723913
-0.7865132095322148
-0.770772597912473
-0.5755332066813512
-0.8463275157125493
-0.6910577368724441
-0.3285248633144779
-0.6827039401633205
-0.1623623101817691
-0.9324247805994204
-0.02251344123591173
-0.6416065028952498
-0.196171834836045
-0.7779368919636529
-0.4499639371428142
-0.6373888577858765
-0.1282802192059956
-0.3857446587428241
0.371538439131972
-0.6219359622297128
-1.541060011626119
-0.554029061218815
-1.205038098443186
-0.18577573188516
-0.1388259187157407
-0.1379080602038542
-0.02928961485691216
-0.3974707378117572
-0.7193523902298622
-1.55824503642592
-0.4075392956561568
0.3067507990211126
-0.7718867786318842
-0.750749301663895
-0.300544605510973
-0.3080347640617111
-0.9312144144346723
-0.5276547791981542
-0.05867337575848494
-0.4123172249539836
-0.4921318529320224
-0.366823219476133
-0.3266799474862828
-0.4209491123544002
0.06830342376158631
-0.1286543010603571
-0.02938530255479821
-0.4187631174514345
-0.7373960643265731
-0.3103827709195912
-0.5112061193514371
-0.9627773515116878
-0.634259267156795
0.6097363897678205
-0.05718740728686476
-0.7681279449671902
-0.8248604267192527
-0.1976066436667714
-2.866435762215484
-0.06264175688217098
-0.07881553731593387
-0.1885715848598181
-0.05856938268501733
-0.3085240592351801
-1.261258524323924
-0.267832758517412
-0.1125816990740294
-0.1591589938019093
-0.09579969952385352
-0.08965312468008693
-0.2313302387523644
-0.05940991066158761
-0.6329464041707583
-2.126798579354742
-0.6425533279321559
-0.146185981191716
-0.6577025583259034
-0.08166660808214819
-0.1085949536190767
-1.133484405599049
-0.5355132658612903
-0.4050713858293872
0.1263728701134228
-0.1349523577955102
0.04031607693785336
0.1114602001245779
-0.03786660279725474
-0.07696801675389439
-0.807405744860489
-0.9163997358798414
-0.1204716191510594
-0.258421643765209
-0.1318519575984412
-0.5707155513687214
-0.2854303975084565
-1.038148274553513
-0.0365564164398843
-0.1809094641314762
-0.09494489281288801
0.1618059136942064
-0.3027546719465282
-0.4033187598581082
-0.3671509434348463
-0.6492492798871287
-0.4967430060673202
-0.630152825334383
-0.3580550797977415
-0.724851830944395
-0.1520648713544193
-0.3622682268460987
-0.3387169677610463
-0.5113425319349842
-0.3465456274232571
-1.374283197558316
0.227385108967168
0.08355836275128053
0.4890202895441432
-0.2589248803357304
-1.380857225135079
-0.1539709833628514
-0.2868490034371864
-0.4959843235865932
-0.05497477459721847
-0.05003892680482926
-0.4941719087263913
0.04142761259494634
-0.1169283159194792
-0.05816634849999423
-0.1110330080324153
-0.08385313076559124
-0.2955869937184075
-0.06059264330396764
-0.5631605288437405
-0.09611050917793264
-0.09375934223216034
-0.04472807956459126
-0.8144568861990119
-0.9520688225479061
-0.07413441325969868
-0.07070409990604229
-0.06753543925518048
-0.5558189748954809
-0.7056251718417805
-0.01645390443138244
-1.379260895348955
-1.049173441636439
-0.2475682632445474
-0.01798743826717018
-0.02333564308863014
-0.7276256314458089
-0.05764260469028221
-0.2626522701163456
-1.075265377412071
-0.6395434468429084
-0.04346869381766617
-2.239391324712092
-0.5415567951540672
-2.111404760548889
-0.6464166059334097
-0.3953580318731861
-1.468883708589544
-0.250941163267395
-0.7806205720816299
-0.7812435814448428
0.1897061699807563
-0.5566405688479664
-0.4561077605678781
-0.4735443213947403
-0.5690989913417424
-0.3830088572384261
-0.7100495937993284
-0.7202609106706727
0.04875729938546826
-0.1350398969657484
0.2685707957402081
-3.315800909410246
0.2984669773893032
-0.1722980603166906
-0.5822163725013024
-0.6140814438110804
-0.06765463326324671
-0.2201588752538504
-0.1395004726461019
-2.946512637392078
-0.805651967476236
-0.1728671291976347
0.1731158541702689
1.884885486649606
-0.06186329531815431
-2.849303398205355
-0.3988053896971033
-0.668867605196824
-0.06740740829155129
-0.3346693834341815
-0.3216068864888026
-0.2428263367109047
-0.02374541749582995
-0.8737136214763499
-0.02706158326395014
-2.131000716578459
-0.6630973728610671
-0.216423927665161
-0.2693975496311829
-0.5275569709494208
-1.080534956146253
-0.3517925244447822
-0.0211092490854779
-0.02295239149641134
-0.1461727654199551
-0.4657015008552584
-0.3000304959414314
-0.1514184190097597
-0.1429279544028803
-0.1221932365617876
-0.115709068544712
-0.1273562007328986
-0.08697788549196375
-0.3010439506901962
-0.4794448345255309
-0.8472519420690071
-0.02499714531633829
-0.1430065197118601
-0.1337494692197803
-0.5467730036483363
-0.10007460074609
-0.04500661669959483
-0.06732940051599894
-0.4354856149425322
-0.1409886710986225
-0.7281084264949252
-0.3267376636313551
-0.3023376055982206
-0.8235841981668465
-0.4774325949487759
-0.07283350288469724
0.271497914401925
-0.6312598284928869
-0.205234459990502
-0.2469718554500788
-0.2328330470752712
0.08516606106516672
-0.1059734468399262
-0.1152123152639622
-0.6152665514300544
-0.01761107448810958
-0.01189808140997599
-0.8347869809839673
-0.009394979115878234
-0.2491045687571569
-0.4807916540422685
-0.6129514687766872
-0.6319147816792101
-0.2593152764972404
-0.1453840418910515
-0.3495151863064237
-0.01613984746849293
-0.004467475483422902
-0.08011836560956329
0.5042190926062035
-0.01442359443869761
-0.05798562459361129
-0.08265275780889614
-1.07005230204102
-0.1739526739244918
-0.4802296556611291
-0.09517930990941448
-0.07837114428708755
-0.0780125924753023
-0.08486369049365994
-0.06017136441197958
-0.6361980079127013
-0.6791000084236135
-0.3170455391431216
-0.7094884583813299
-0.9057528360037382
-0.2265678928814799
-0.01812485316655353
-0.01540148573486613
-0.4460626733303326
-1.135767827673325
-0.4132852734927151
-0.07908154927845605
-0.07252756267157824
-0.08427060003381763
-0.07159284778415484
-0.08749927485233558
-0.1307473784243541
-0.06763339166990928
-0.35004356255297
-0.806469300504149
-0.5551632544014632
-0.3157219151821716
-0.6924037128338797
-0.3795752263459357
-0.07131946444566625
-0.3042946287690338
-0.1969575524278561
-0.4877229625882761
-0.131215042046894
-1.31244204299571
-0.1363643534405598
-0.2105705204145218
-0.3673117008948414
-0.254058142838836
-0.4701942373923176
-0.5132309752385241
-0.5562346142693767
-0.07258100693147658
-0.7838696633194776
0.4109760961541836
-0.305819201680114
-0.6845349068605504
-0.5852490208700987
-0.2856559272934486
-0.5694260797974279
-0.468153009385455
-0.4010847676656044
-0.5107929635457958
-0.178433884340947
-0.9464703646571986
-0.3563589787201106
-0.3055373197169108
-0.5035563522574541
-0.6750062150070848
-0.1326303286427414
-0.8798584611711771
-0.8022875385743515
-0.05121492793730086
-0.5705790047530377
-0.02237213508663263
-1.328732898327627
-0.7322145931680587
0.08473774249102538
-1.811370580818426
-0.2162000111001929
-0.596032257796975
-0.5872064063991966
-0.5104766549383035
-0.84781260837035
-0.212754002532869
-0.6883077420437945
-0.3948531906153897
-0.2330868628106012
-0.1988605188666537
-0.45139028030393
-0.2136719358166498
-0.4193464913691882
-0.1724272224257184
-0.2397988622926029
-0.7105850001858949
-0.306542916784086
-0.5057731741943411
-0.7418451424978777
-0.3411189692559327
-1.640714457696746
-0.438649955165565
-0.1798830802652892
-0.3362189747883734
-0.5569577449723115
-0.2583029516888418
-0.1176835091732249
-0.3775522210061247
-0.5983637173817367
-0.4064874671266823
-0.525199549567843
-0.2261008411575362
-0.614001875424344
-0.6644726522754618
-0.3789112280067888
-0.1830954789490421
-1.122921022642747
-0.8796878493948368
-1.121120271831866
-0.5771322440169541
-0.3175476190244318
-0.167408176017526
-2.278240786835781
-0.3468634683976366
-0.6853778582032158
-0.1724824418026527
-0.05036912313983015
-0.1833483825751212
-0.3871434211262936
-0.9253977753348007
-0.1427028167149609
-1.902042460804545
-0.2687265210747128
-0.7994008737584215
-1.877881617872125
-0.8149535236417732
-0.2934697656336557
-0.3424954400451921
-0.2425334942610456
-0.410546446294183
-1.43011554887829
-3.694400992397078
-1.402974117759865
-0.3841023674589646
-0.6222793148359168
-0.6590166101672497
-0.6406158410165529
-0.8138123940974985
-0.4729323324663761
-0.7102929556084892
-0.6744650418726088
-0.3851524836840938
-0.6722475301807915
-0.4924307519861069
-0.7296820261273317
-0.4719949807377477
-0.3299385736207969
-0.2531859310442481
-0.2216795166303308
-0.0992770285828857
-0.5496835388759725
-0.4517385440925294
-0.5344708230647961
-0.437551993420656
-0.8803805220648968
-0.8705968675394857
-0.1858213075303105
-0.7730769085979428
-0.1134202166340118
-1.661383253978126
0.04091404588175702
-0.4060317147187109
-0.2779111818794124
-0.4059906943729091
-0.4906543927170163
-0.09017659554111083
-0.8016207439311613
-0.6195835971586425
-1.462009290228813
-0.3422153749404694
-1.168464630242699
-0.592410095065652
-0.9834669489347256
-0.5292078543448595
-0.1907108858962086
-0.5821813306163802
-0.7441295170152392
0.218726110461966
-0.6062283791713332
-0.6305695324185068
-0.5350077519368501
-0.1526811700002942
-0.4275963125555953
-0.4633773068262698
-0.6171996381108991
-0.8786650700140848
-1.3923876992071
-0.5139374208754213
-0.1292679755544377
-0.5115427578161009
-0.2004368734110752
-1.802525779000069
-0.6330943143503466
-0.4982446827750409
-1.209558825322674
-1.020239928711112
-0.4357932983887451
-0.2984084847570866
-1.337148869673248
0.2291030717236596
-0.9413312318026341
-0.6348549307276635
-0.2750535288282768
-0.7134595860615982
-0.5935230013932633
-0.8895147043194875
-0.2416983223618773
-0.8313680979420547
-0.9354100204191517
-0.3929544664680933
-0.7036974074207395
-0.8961548324689683
-0.97753957051354
-0.991178317263352
-0.4909845311956751
-0.9094068026980734
-0.7106038667210347
-0.1209191361504563
-0.09173382713906802
0.2932241894872263
-0.5236756585894002
-0.6931971020713437
-0.3641290261399946
-0.3666479355211831
-0.8493901873979147
-0.3006365006415656
-0.4309299453454764
-0.5436542495110073
-0.06580878756091582
-0.6459064429336135
-1.020319369022164
-0.2542946848284133
-0.249822130034599
-0.5309409625482716
-0.2347174067068501
-0.5860106642569622
-0.5568265300894947
-0.5205266125564489
-0.5562996264067287
-0.9136654416170106
-0.2689465169416543
-0.1653246454665365
-0.5579771298207155
-0.5351504716562713
-0.6071137392152993
-0.694791764103598
-0.7189792011258245
-0.4399620093880718
-0.6618868987097667
-2.364788705920768
-1.182156444613134
-0.4068753777541078
-0.2176009252760247
-0.3554624919580706
-0.7484464905034962
-0.708583892877661
-0.5942239795199448
-0.3041392123739598
-0.6962113676736612
-0.1037294489284441
-0.105912599756219
-0.4851491312962051
0.0586649964973936
-0.1528019493249691
-0.8461196060369924
-0.1355565771642628
-0.5535914484798063
-0.08874463060939204
-0.7861795304083498
-0.267400210695769
-1.302632081644298
-4.502657958939968
-0.2997968174918696
-0.1155204084370954
-1.122523436160705
-1.260329809792198
-0.1343833212860833
-0.9069889338755306
-0.2209371741167758
-0.3720108276385458
-0.1573528269215089
-0.4339112189410604
-0.9001431098090495
-0.3283682411807993
-1.007157864367184
-0.5358284636694831
-0.1377092368386025
-0.5678523919296784
-0.4859541859682146
-0.2688250267670823
-1.066115054828664
-1.831644128622678
-0.9019922752416397
-0.6478473975902731
-0.5264618321418506
-0.6893289487241803
-0.7647557497948608
-0.6859447758318981
-0.1093730425493451
-0.5343565523902035
-0.1233458802863594
-0.198349837079107
-0.4257803273803645
-0.3433279064591282
-0.6226536733545307
-0.5576138627821431
-0.5501007003740731
-0.3845199703528862
-0.5699746385066615
-0.7264296565262113
-0.7457887778845079
-0.5596024210713145
-0.4561780226540859
-0.9460574117669127
0.506600041487323
-0.2950408937881752
-0.5331416490999211
-1.973223640118551
-5.277981845123598
-0.4710377544490528
-0.2474821600460797
-0.7370389743541498
-0.1267571858343746
-0.1703603586035624
-0.3287101773184252
-1.323044107163198
-0.111531686814147
-0.0970903876848217
-0.1882376647610831
-0.668960105329774
-0.8983082004574309
-0.4058403262859872
-0.4709746272412297
0.1212278811991607
-1.048624267674502
-0.6159652112085746
-0.09398837652398789
-0.09459441059124166
-0.5186403777071706
-0.4704400574883005
-0.8773383763814396
-0.6353774475598258
-0.5915614478899047
-0.09751555374642178
-0.2698201707101332
-0.3720465586483127
-0.3120645133434869
-0.257113318592717
-0.4280198436835899
-0.3461655579646459
-0.3040185127110787
-0.3926832867319874
-0.8096034291573898
-0.5214652006721634
-0.625649132195279
0.1055514957300331
-0.5692012453920822
-0.8558284555729042
-0.8354229759162263
-0.1882489173276984
-0.9022818845863361
-0.4400728521245983
-0.4892427675718625
-0.03979133390153155
-0.08906086758669385
-0.9602704568277557
-0.4701702044132014
-0.6274920908801482
-0.5823486154130085
-0.3100366165365644
-0.1204103817997945
-0.6861128908650146
-0.08895062597788293
0.3117274972307639
-0.7754617595540161
-0.1836681878367557
-0.1201560357636077
-0.6471678530414621
-1.499213178538313
-0.2726237979748158
-0.1579595608047619
-0.1421714953428005
-0.9858857539164174
-1.835525935306177
-1.222138570797012
-0.2889374428198831
-1.585754084194338
-0.7393586588878848
-1.823032630995793
-0.586037008162394
-0.4812289445533333
0.3208344650852776
-0.1496863252341726
-0.6163842414432951
-0.7146456566200678
-0.3678900592828137
-0.8386194571490677
-0.6198378782742777
-0.7267897856912133
-0.07168225190925138
-0.5448791099979001
-0.7444348075073486
-0.8075149822231197
-0.8645150158971058
-0.5752203965387913
-0.414963379102108
-0.3485269602311467
-0.5686099074212991
-0.2663415948870881
-0.7134547949186294
-0.1576419411040395
-0.8514050429657199
-1.477743052126434
-0.6538516873844444
-0.2395198609300957
-0.7488182883364611
-0.6786074960815885
-1.680688479357792
-0.2456119596971814
-0.8692321159772972
-0.3876029248354949
-0.3642264371891756
-0.6379267778348923
-0.7004792455461475
-0.6191797672902493
0.1908095391456627
-0.5515571004289166
-0.9090366814683221
-0.7845439123552127
-0.1757552171643014
-1.104223227841323
-0.6971428050304082
-0.6066354055756552
-0.4672983152483532
-0.7336370344898553
-0.5174800154789218
-0.7125672987914974
-2.889520947179146
-0.4799626713183986
-0.07914921376778186
-0.09439766126887796
-0.1579398093337523
-0.08977258358455513
-0.3955574890803265
-1.853612004631501
-1.615342198519412
-3.105829832429224
-0.3876734212920578
-0.1562308186869541
-0.2573607429909229
-0.5973814820838543
-0.1922627885438524
-0.1931083276702324
-0.70902950938609
-0.4389607478933508
-0.5533977189399489
-0.7273140174941108
-1.858216228162491
-2.393545011429058
-1.828873169174225
-0.6318828191478739
-0.8624633072099742
-1.426996094750118
0.770484994565201
-0.4766202404224284
-0.1805542215191884
-0.6133519442823848
-0.1167129320386508
-0.3450567040327833
-0.04690818288330895
-0.8650245773182443
-1.030521979722207
-0.3016329788732074
-0.7410991385757623
-0.2329035626047777
-0.4652790851753853
-0.9858116985220998
-0.2897547649803648
-0.3001623547751748
-0.1662608974816125
-0.4760403251466102
-0.4215320927827688
-0.5737972421479649
-0.6300011268491399
-0.4674322968914967
-0.8653423219330697
-0.4856968021939801
-7.535216879918866
-0.2513664482803261
-0.7119768464529903
-0.4762548708457593
-0.312865421186838
-0.6598747345678543
-0.7254061715602387
-0.1002431133925976
-0.1396293239764303
-2.558979274698809
-0.6052996724169846
-0.0720891399837463
-0.07384744740237753
-0.1004194753265795
-0.1764756518234525
-0.539195674788387
-0.1942602843954673
-0.1476112979688634
-0.2171478252323248
-0.1256143221555719
-0.4226558413672346
-0.3044230311418805
-0.1245811297751204
-0.08145417642692149
-0.5276426203113039
-0.2398645628468512
-0.6768579146217106
-0.9608330553042982
-0.06779061076839459
-0.3470384389376104
-0.09073687896253022
-0.06448093522277798
-0.5617124929790011
-0.05313140894799277
-0.05204847344524815
-0.2741236975117822
-0.1752312094245177
-0.119790736050726
-0.1308000024348287
-0.3743896111208356
-0.2055823887681845
-0.5218588785006144
-0.1291861599313731
-0.4684329148909286
-0.4051872535854741
0.1707002371166784
-0.1485500337421675
-0.1111399848077334
-0.3247480826640755
-1.020211702937113
-0.7912706518744335
-1.261535700836138
-0.5035860358017512
-0.8577865737949352
-0.3653052004315041
-0.1138377031867931
-0.3005744521515537
-0.2896725448940795
-1.020106065161764
-0.7366663427086124
-0.3969956879456776
-0.2368191593069844
-0.2772018501101304
-0.2403844127959257
-1.511742257191852
-1.184780013203524
-0.09786757542772748
-0.3058984810957691
-0.1326323067391197
-0.6977410011947647
-0.2722870789575211
-0.4836753595246359
-0.5084449275442392
-1.455036750526306
-1.015463357179055
-0.2133383523809166
0.1013850040494887
-0.5397772183422368
-0.8623088189916294
0.362272996406358
-0.221219960271499
-1.763027463794439
-1.165210536486241
-0.2074816920175012
-0.8716302340993423
0.5683843735728075
-0.644079194166033
-0.6521025844744023
-0.5858889171608261
-0.1820903039631353
1.303816692959245
0.8894900249834242
-0.2438417053081094
-0.118702280320586
-0.2137532283515381
0.1747180636373762
-0.1141954118854223
-0.4752056665881035
1.310453849407685
-0.3079936986031384
0.02372872889700438
-1.018064073306921
-0.5907634592582451
-0.5286644348511194
-0.9563305274943074
-0.623905849930166
0.2285069857180987
-0.7513558226152547
-0.8910621855139598
-1.238033420708077
-0.1497514317561089
-0.1449261997904138
-0.2606799156652991
-0.743202741179139
-0.1829179956040292
-0.6808187302126307
-0.1199990561722098
-0.7468753559720366
-1.203976616395384
-0.1293076673394451
-1.530332944493642
-0.5527497466095452
-0.8288508452832903
0.02326680928333508
-0.2405874660250291
-0.1823262765373548
-1.498306960555838
-0.2424349413808407
-0.1209127861357312
-3.577167070990624
-0.1739748658545053
-0.6206841566014031
-0.8369890493846023
-0.2994896067337151
-0.8622285680470022
-0.7087617787346339
-0.2088953337249657
-0.132193210578134
-0.5504326221460457
-0.8206361614736628
-0.5716044744684964
-0.2937412499129885
-0.2396654712822987
-1.975716465623912
-0.5395016361908773
-4.172256797633536
-0.7444490201742593
-1.087856762413102
-0.7794991664351646
-0.5332789425064969
-0.476632176030955
-0.1122093068079684
-1.161845288051799
-0.08082957379472377
-0.9068324668526879
-0.1021875379768177
-0.06801460352819669
-0.09898478014512559
-0.07854230616744799
-1.498528571983185
-0.1163333737538277
-0.2036656172605329
-1.327494986563752
-0.1459133151616988
-1.514783793767324
1.074163956108215
-0.7282188629621744
-0.07523356759775369
-0.2382759178258618
-0.1035043003251209
-0.7050966799826559
-0.08051529181558778
-1.989702835383126
-0.08192012185293687
-0.3143370080558172
-0.1370783267669989
-0.02365792506588695
-0.4936038793771151
-0.3033637187676044
-0.3767870984038501
-0.7252662464365788
-0.48455160675347
-0.4093007949239141
-0.2442224783532929
-0.5832389558869741
-0.6540270585611386
-0.1226145334038199
-1.122695843652538
-1.59848204018657
-0.2656508770081641
0.3293126481211515
-0.5473465980957901
-1.434387775055425
-2.211597721426096
-2.553267058165473
-0.4506150004439105
-0.1801410845833198
-0.1078781421737743
0.2521372179796268
-0.1731536510892825
-0.4246756966290975
-0.1167271350960132
-0.2318884191261228
-0.2045240634648572
-0.09193966338174406
-0.4850390014203873
-0.1293156754194974
-0.9077545099904426
-1.347597749889955
-0.1799838511615481
0.6360099390607524
-0.2014111203091331
-0.517309226246541
-0.06886998991076264
-0.1933613957352348
-3.865498133824498
-0.6190211397530948
-1.593738656886591
-0.483293436446011
-0.1275622511924676
-0.1276835940140769
-1.138391294949847
-0.3033851704036253
-0.1806008223033016
-0.1505333455623958
-0.1406771532864398
-0.2825162919745071
-0.2158064487170139
-0.09046038707531283
-0.3728871891649801
-0.3749414245185683
-0.5633372363806501
-0.1312467913143706
-2.268563269232756
-0.1197105487700517
-0.3029380850224541
0.1791564437273915
-0.09089400667344597
-0.2018751104509174
-1.728606967986614
-0.152537646245011
-0.6304200698517127
-0.7988245544223646
-3.15558726765638
-0.6315580064479597
-0.1985730376562485
-0.8578147442724532
-0.1628098579298019
-0.1880764853431797
-0.2127115885431235
-0.1692163580120391
-0.1548746484462543
-0.4652609574790217
-0.4503222253100664
-0.2580933827088298
-0.4727249556350751
-0.8096634369926616
-2.242703234124171
-2.329454641493205
-3.49487635657193
-0.67306647511688
-0.4068823559922768
-0.2728455854634649
-0.3294485919193171
-0.1213699844864545
-0.6800577386470285
-0.8065987513095861
-0.2153933427740723
-1.576408260637929
-1.347829449377294
-0.1800417990599432
0.5247415481622204
-0.4196809200025952
-0.1380462356501798
-0.3133655177892212
-2.430984331541247
0.4544943499653252
-0.6880281661109079
-1.107734477867325
-0.8130084956505248
-1.618995957575006
-0.4558183059448537
2.941647604093267
-0.5375601735092792
-0.8608172475754455
-0.1720142130031611
-0.1104291902880948
-0.3629665902333375
-0.2415236331267926
-0.2126640776485797
-0.1856145198742127
-0.1213157897007177
-0.8864489612093057
-0.2383201567956464
-0.531125553507297
-0.1207242097463692
-0.7822166859111946
-0.8364474239896605
-0.2195099799766566
-0.4408084199863106
-2.293524633873913
1.843578792476267
-0.8381803115732549
-0.1652537232509722
-1.131724146331688
-0.4979022209006362
-0.08221870701729402
0.01107956468246122
-0.6899284996818817
-2.247405142654991
-0.1611547060420938
-0.2308416130412179
-0.2871942749803825
-0.09052890136759384
-0.06519165148718604
-0.3341718762615681
-1.276399958750538
-0.2823651836738796
-2.772780851351954
-0.2590396378382278
-0.3465735810553362
-0.07637145156782377
-0.1402064884102798
0.0559555349181898
-0.4354666791770849
0.1149189562725963
-0.1186277795095721
-0.2209799991374782
-1.309287227833757
-0.8357221088816836
-0.08329289796441269
1.546391755608042
-0.3556576012718121
-0.2967165391979452
-0.6710368016654498
-2.06238657761985
1.829779119618817
0.4603854376355084
-0.02885172658675532
-0.2855738298040253
-0.1749498188421313
-0.1048858906561694
-0.6065495514146689
-0.3115333156508528
-0.7467558039208019
-0.4976783152557546
-0.9887428965553812
-0.2288423048623809
-0.8418505567761397
0.2431051164273317
-3.763633922699005
-0.1156293906952795
-0.07279490887289276
-0.2429537659946067
-0.1088602967081146
-1.195114153275635
-0.06304059149468012
-1.460110937402759
-0.4884951065230163
-0.7813781981285656
-1.29814386443183
-0.7603669745761225
-0.7064156529064682
-0.1131230323869417
-0.02083337880977472
-0.3021440092216604
-0.1142249597727531
-0.1467931489123772
-2.16027709660925
-0.1055929979610422
-0.1248819934618059
-0.09910125730175359
-0.951080535895814
-0.775149026067088
-0.1200167057154489
-0.01741707821972031
-0.1642708566815059
-1.717046495411947
-0.1506564870624101
-0.3267895562552908
0.3957877362973372
-0.1005174206789249
-0.1212620040688981
-0.2434387896929583
-0.1128929543685142
-0.4485131961501536
-0.1285337625495246
-0.1138301819104881
-0.3354756486263153
-0.1540643647917993
0.1700979063971859
-0.4476708642868426
0.0002143604770076607
-0.8024398580569019
-0.9963614232402368
-0.7725567997322655
-0.1610665359126717
-0.367093188346272
0.6914903271009192
-0.1174449582672933
-1.177343369547388
0.2821366833289969
-1.260942811081347
-0.2934849443138581
-0.0503468024864464
-0.5155750920652258
-0.09345572000339655
-0.1211939849999434
-0.1636883609079333
-0.0895175588778773
-0.1235251004111177
1.029092200414907
-0.1823113923449111
-0.1238707658971339
-0.1691198424644508
0.4379655753514369
-0.1666077207228831
0.5157596616172647
-0.6901578901031228
-0.77356002107896
-0.0835552090032628
-0.06780688217833107
0.3814074546217951
-0.1303159094917315
-0.4203776805963279
-0.6562494928463717
-0.2820551326895772
-0.2916798067862533
-0.1477350005888221
-0.08198619699696195
-0.6110350877710102
-4.254343058570144
-0.4891955439874801
0.6824654709403444
-1.929815609955287
-0.5687286343774646
-1.834809071489588
-0.1642969205724905
-0.6972133983973533
-0.177536729583424
-0.2734396491868578
-0.9258659334536161
-0.1135057159147406
-1.108643560939133
-0.1503605355560219
-0.3206746689289435
-0.09312301182222991
-2.204332405070465
-0.7653703213203256
-0.9194238476271323
1.07130785992662
-0.1235472692495218
-0.1066657685240395
-0.1710759354054629
-0.4322979954643262
-1.770910345243218
-0.9155419472717959
2.741090669163541
-0.4129923138048595
-0.5406126284373217
-0.648789398184535
-0.6708382912362711
0.9052037927629751
-1.653084133691697
-0.7077893198910424
-1.00368102582583
-0.2529450055910483