/*--------------------------------*- C++ -*----------------------------------*\
| =========                 |                                                 |
| \\      /  F ield         | OpenFOAM: The Open Source CFD Toolbox           |
|  \\    /   O peration     | Version:  v1906                                 |
|   \\  /    A nd           | Web:      www.OpenFOAM.com                      |
|    \\/     M anipulation  |                                                 |
\*---------------------------------------------------------------------------*/
FoamFile
{
    version     2.0;
    format      ascii;
    class       volScalarField;
    location    "0.4";
    object      p;
}
// * * * * * * * * * * * * * * * * * * * * * * * * * * * * * * * * * * * * * //

dimensions      [0 2 -2 0 0 0 0];


internalField   nonuniform List<scalar> 
19632
(
0.009315547838906478
0.008400854789489317
-0.003140634488312131
0.005247945907769948
0.004795101549022621
0.02034557215860889
0.02047665904555317
-0.002035452981988503
-0.006041135730270932
-0.01425589248863
0.01124137092426865
0.02045752928688738
-0.0101632811897456
0.005738823313477407
0.01303259185108642
0.01030738705290475
0.01297966325706345
0.01273010046461578
0.001692307961549129
0.05468907091271038
-0.005444235855771183
0.02525969630304913
-0.02452770956337794
0.01156544883567354
0.002696265530419991
-0.004099055338127975
0.001176650310131669
0.01511374799080227
0.005805270066106405
0.005135796789740327
-0.002911785784582742
0.01439814053466616
0.01035008557221308
0.01493765771867304
0.003974341915153034
0.01302383977861652
0.01805414859163517
0.00675722677643109
0.002296554056703913
0.005607629996239619
0.0244234515732669
0.003149192916479178
0.02208593172713254
0.0186404226651997
0.004932654357188209
0.04095899890251205
0.01609606891723596
0.03739258487818725
0.03399064773099197
-0.002173862859144499
0.03186026741965737
-0.0005603363300360102
0.01227896847534688
0.0340492065586639
0.0273490879786265
0.03411611686367975
-0.01173945201134754
-0.0003108927807329589
0.03490735959678385
0.005565105068847005
0.006392992925097427
-6.291653722280954e-05
0.002678357958409786
0.009828542022814168
0.0231415722377022
0.004126878946850761
0.02689792321055573
0.005999697507247515
-0.0005994953563908542
0.02254478323855539
0.005484109964549863
0.04560839549187636
0.05691885219015235
6.75847541932728e-05
-0.005269105428162331
0.005909494622294416
0.008509331587259384
0.05131063844070417
0.0290255691118744
0.02605596854929267
0.05445683220341675
0.01701693991639397
0.02075425426070253
0.01962132349669956
0.04021027584036427
0.04162790059889355
0.010041048836182
0.008776994245402236
0.07161598592284202
0.01865332073564816
-0.001572726844805167
0.004245204875692627
-0.01285705441937157
0.004556554793863091
-0.004393991208274172
0.001138261100128857
0.01252470387039836
0.007591868143422902
0.03915485238209669
0.003799747974133345
0.001940271739085787
0.01079108531538823
0.009013534181147337
0.008736742833706696
0.07221730140615738
0.007155941996888304
0.005731944878464347
-0.004320976429783568
0.04613703172128334
0.006856776435608936
0.03153622169316011
-0.02025182700395279
0.02294175282874653
-0.01443101896618706
-0.02780994917413962
0.01105725337646046
-0.01348983499700613
-0.01466461907097572
0.02394625944200566
0.008775879356391013
0.03840978726417424
0.005173333044511215
0.004995733763764499
-0.02534375886284925
-0.02941501806245733
0.01710415856845734
0.0103719079658121
-0.001152624568318724
-0.0001799651961346863
0.05485077519764511
0.06265401611711871
0.001194643768147679
0.0168895386556968
0.0006882043721150689
-0.002839731051942676
0.009591746497351799
-0.0274625193018854
0.003903502697972023
-0.005065102731976802
0.01201199166740327
0.01047751542307995
0.0191899306277468
-0.00204057138460128
-0.09142999790449102
0.004970074864312375
0.01065562194338584
-0.0006585148082581818
0.01588634134192082
0.01214926537510705
0.02117164253194132
0.00624860170636334
0.04326594800548838
0.01988162784026359
0.0006082141026467585
-0.0255554273223429
-0.01285138374947136
0.01668233500818782
-0.004548298813049533
0.02410397197420209
0.000248449817210549
-0.02262906610064132
0.01976752673209944
0.02025659089380146
0.02638139902565716
0.01863170238383034
0.05713078220254356
0.002448175635554526
0.02618392628043718
-0.004153789183246574
0.03137111817701255
0.02116740651472979
0.02728569735572279
0.02632080553967978
0.006892571210431703
0.02584886830648641
0.04622784693559753
0.0396472806431436
0.003049404349836297
0.02351097198827383
0.01803238419686003
-0.001640324210510138
-0.002845578134178013
0.003401083585322031
0.05473745244773713
0.001885391791024524
-0.002081765803815555
-0.003336867885354294
0.0004173198775932218
0.06234428304523282
-0.00253176459722391
0.077044060093154
0.01106751667947195
0.001363808762137495
-0.0004067838438215488
0.006389185322529177
0.005715870000739219
-0.002143195858746784
0.003595552675651563
0.003286073995758294
-0.003616835495118677
0.003275023229754211
0.005411283135902611
-0.005489718946389287
0.01121563165469795
-0.00315348892082177
0.004991606020502573
0.13911759690488
0.01096907678677123
0.01418248375539461
0.002579311043550362
0.02124002739108828
0.005894603071159168
-0.0003029139709418576
0.008635865209060031
0.01223837851988975
0.006161140050742477
0.02186446842371605
0.003909631769496147
0.01464815562338866
0.01576300357784068
0.004663262272390523
-0.003676949860681036
0.006677532779372282
0.004965652344428213
0.005409275762456673
0.001859438180661211
-0.02083789544094794
0.003699197296302139
-0.03027977587642153
0.02910726336985812
0.01408708439698178
-0.01054075976142142
-0.004002040127069101
0.005927843363531434
-1.948532731297889e-05
0.003040516256841122
-0.001155647629111609
0.006643691103163755
0.004508809429412584
-0.001104653626510394
-0.01315297273661889
-0.002089670902906037
0.1371809904903714
0.01025307553449669
0.00279625184195318
-0.002849570860796535
0.01177642125627564
0.01008439215547695
0.009219140109171567
0.004487229981966124
-0.001541852996072364
0.006612136736775073
0.008939611813721869
0.008672954313686492
-0.002912733982521615
0.007753565242605478
0.008799562519491363
0.008866888394315195
0.02180164904076706
0.01047977408404809
0.005945358441393128
0.0259022097835414
-0.007191376874786303
-0.004428527099724497
0.01206065394532761
0.01174046306742996
-0.002029500726751331
-0.01051168194041642
-0.006034725077977516
-0.01771657807527074
0.0006333948431331503
0.05907734150673449
-0.00361610171013967
-0.007207359731472465
-0.00180088692467872
-0.008416124821816189
-0.003328157681677747
-0.005164238758748456
-0.004405003972394285
0.006906975910233567
0.008532707248415627
0.01832659653897895
-0.003961230583910671
0.002516681525879234
-0.0005979194849373671
-0.000778408163367149
0.02731221928222338
-0.003689200446717059
0.004069327330318864
0.0002658550052090994
-0.001809962086092454
0.004900756510792137
0.01271831394146369
-0.000134850593000938
0.005518834054115254
0.01713534956000182
0.005094295344705825
0.03362255085938679
-0.0006451297447886026
-0.001875875471198943
0.0112643682191383
0.004559169813907461
0.004074165531787903
-0.002801265924123892
0.01097117267845602
0.01464257993440683
-0.002825970355038958
-0.01414598577717622
0.02151868868634667
0.00994424198884452
-0.009179712939942629
0.02462722961332675
0.009901180251963456
0.007597187960759986
0.004385995922690727
-0.004975633085052009
-0.0007242182274222125
-0.02609955416580836
0.05757394686582062
-0.0107981557990356
0.01225893291262581
-0.01143408336767125
-0.01354498683640857
-0.01474139937198998
0.03931826279355308
0.03808315298741841
0.04202710171527793
0.002611801493213784
0.002022184795884537
0.007996782306928791
0.00205803508740029
-0.005124032311174184
0.04063040310262878
0.0390416708340311
0.003724243705914315
0.04000724093099259
0.006915086360224365
0.02630344891302713
0.00524754615011798
0.01664841524604992
0.0381848246181857
0.004655335422341865
0.01454207715652963
0.02701210798338272
0.03844730916571228
0.03380959346644419
-0.00116538139271382
0.02085145507777854
0.0009991976122311194
-0.0008015049938463875
-0.001152717693293109
0.01222893979479964
0.003536837054432565
0.006058101420049778
0.03700563996968506
0.005796234892834309
0.001358223591589999
0.01174986917916244
0.04645909264593029
0.009820148362961851
-0.0001183560858024787
0.004556768247524537
0.01817528444586621
0.02327840234797968
0.01537581708207402
0.00223074326178012
0.007896824785671532
0.01343764273689652
0.009060528181724934
0.01185251379621838
0.006480523099771548
0.003856069036935943
0.007455503321489136
0.006221076375739727
0.001683712916193655
0.01425515953396143
0.00428903099721149
0.01119998000423365
0.009827232294694552
0.003304969467674906
0.01874529411626347
0.005891017441314154
0.02722530752394012
0.01428716724949703
-0.002334069990718239
0.003539066498815229
0.001388594626539093
0.04686881478940864
0.0484890104790301
0.01276506409710267
0.007123536505493916
0.02578483121784298
0.008105823471343787
0.004751235743709284
0.02603119840681929
0.0006715623203311098
0.01686330903003179
0.0450833740201546
0.03072090052053439
0.03713799027289052
0.0292626311313617
0.004358085266404976
0.005748937447416408
0.001311685777343861
0.0111559106818013
0.003926137882679518
0.04164239746790321
0.005246987699168484
0.04337434845717628
0.01581596780906728
0.01524925556247816
0.00803136077318963
0.003873124404883121
0.006319243111743944
0.005372577867338275
0.004304664350173648
0.002680868844231601
0.006459363246125141
0.03144507898961892
0.02686776132406861
0.01365268041929563
0.00185455037912301
0.001606357779087386
0.001698083221624048
-0.01458302569967531
0.002110791802590067
0.0316663706567698
0.004537423911542867
0.001885731539967704
0.02088053342986874
0.04673089690465008
0.00236628347357557
0.01817063404787658
0.04218378315027059
-0.008762792016677581
0.01773868530159277
0.008895149094695087
0.02260138779327498
-0.01407541349048611
0.003694920884904231
-0.002559922101591299
-0.003967588037680875
0.003444521681500673
0.004303456829540671
0.005014088262143674
-0.01723161043426822
0.003623315497326115
0.01588913845344187
0.005145953744388537
0.002422354629643835
0.00328971669713848
0.005053066539031014
-0.004714902552415919
-0.0001145942799290701
0.003215573317267755
0.008892842178510706
0.02043639799814567
0.007720639555597604
0.001822951489058244
0.00718518533526501
0.08837318755177011
0.01751858602896565
-0.004900569994812233
0.01787144725187532
0.02926070725734079
0.005351668006528795
0.003791448626585167
-0.004169195844411094
0.008450773027214298
0.0106257616185563
0.02016374067647614
0.01532092896013189
0.008574467730900853
0.006270390271342548
0.0261245859577129
0.03020257388919472
0.02758304903505853
0.01136934095613864
0.004209440426666829
0.01337501256091447
0.01535661922833538
0.01032841998421421
0.01102353821410781
0.004772375281552304
0.01224400975548841
0.004247114682590683
-0.003862255783562248
-0.0006196059981670773
-0.001704412804683579
-0.0009622756559100006
0.007818056701341294
0.01322762140088623
0.003358715149515723
0.004376428703712108
-0.001812360121757924
0.001693279151995136
-0.0004424894382714208
-0.004053433612723932
-0.004904179723185342
0.003777758593863309
0.1038937440182747
0.002622556253998605
0.01208983677892403
0.01062577417314758
0.007497781925866779
-0.0314000966760658
0.007548298064708795
0.01079543510861519
-0.00494979372649904
0.009493500133801609
0.0100392131386864
0.01128188222611933
0.003416430577357301
0.004152626641310189
0.002414596715878382
0.05039453716988013
0.008890731323734566
0.01186156533728148
0.01006304754164889
-0.003651342611669553
0.001498209446214927
-0.005176785071085242
-0.003463537147137766
-0.002735325266413457
-0.002207436706074403
-0.003731183257407288
-0.005430257173120348
-0.1098779463603656
0.01889029813694617
0.002215711351607858
0.01187068785946213
0.02406785098308285
0.02373236176597161
0.02455171449801961
-0.03507281141571838
0.02476082446344531
0.008588810601914082
0.008222925758343722
0.01851467912951561
0.008340632941538827
0.01885918673174493
0.02670615350378731
0.03603549048510839
-0.003677349571374305
0.01090317758927476
0.01987761092197092
0.01808529687162306
0.03164747144865502
0.03144330885334452
0.01756296178244324
0.02355167935454342
0.01522532787802482
0.01547926658251722
0.03252163790909002
0.01487794674053671
0.0142946436239518
0.003420366134812676
0.01570462101400554
0.01486311580878521
0.01624764179522466
0.01415332690876
0.0194236901514187
0.003583499459197962
0.009415604888580446
0.007547086167628685
0.01472859980664496
0.002293942899956979
0.002993085622995473
0.002880028470265132
0.00321213029086983
0.004348044088192794
0.01232808541826562
0.003031952561661088
0.003711801094241822
-0.007783284831232792
0.01179690258292212
-0.004345390144634646
-0.00308124672900857
-0.003788870568217207
-0.006840318357289775
0.01112760762312396
-0.04692794524981579
-0.002130527541777858
-0.003434694184550935
0.006756548804120371
0.01410926274441443
0.001583016047049436
-0.00477365817541154
0.003458735252017193
0.003560655726944801
-0.005372364816365671
0.003714254684021792
-0.005133944532850726
-0.005385966244499633
0.001589260087044157
-0.01368286086851347
0.003496807642600625
0.05649605756223166
0.001869142578674418
0.001821512028206252
0.0009008189497109781
-5.366978040301936e-05
0.000312434698114749
0.001103976695522515
0.015241399412327
0.001761442630354923
0.0004957949202030222
0.03856613036341514
0.01178129476073319
0.003524128330527241
0.00788090388597331
0.0008291493508840523
0.04259397544778188
0.006956189556819438
0.01576700062766475
0.03865976113076433
0.01166079485643574
-0.01133456637988838
0.007216616336847474
-0.01054979451675021
0.009000545467407474
-0.002697614932266882
-0.003310035405101386
-0.003693360455737276
-0.002487636885244636
0.02310152926932619
-0.0009630488076150281
-0.02722635142263355
-0.005392801596031232
0.004789801999051281
0.004568547798216773
0.006073016171953152
0.006540587541873227
-0.005368344409277048
-0.002700350178423321
-0.002422612367665829
0.004352126522892207
0.006443314281757023
0.06288124348188011
0.08390401137271231
-0.002626123787922987
-0.005324557962314089
-0.03732411394403556
-0.005865422909097614
0.01227233053225119
-0.005159136967740169
-0.004828958727539794
-0.005357552631443351
-0.005617066862010636
-0.00603648134901614
-0.004464038590671007
0.005039895185307535
0.005339525405123907
0.0440828179549515
0.0301035015723027
0.00425370437568236
0.005212655489129394
-0.002064767767245845
0.005221601928817601
0.005424544772359764
0.005153164617978641
0.00484625894939618
0.004828606824735415
0.007725161158142199
-0.0001273061176282638
-0.004752960534469421
0.005414600955978384
-0.003728810233982008
0.027750996909965
-0.006647348113397815
-0.005656808416441137
-0.005648346061153316
-0.007724300725222605
0.006361162130071879
-0.007017022404030043
0.006122064451473016
0.006459291159183894
0.006640765697955503
0.02527377313647107
-0.003207398638897034
0.003799305263875205
0.006007315274288768
0.00452680660211901
-0.01606505391214154
0.007346353102131719
0.003401748738367025
0.01100536707324373
0.02131137434927833
0.01029302315152757
0.006318500421097721
0.007055526746699791
0.0219777167292473
0.005733662971004547
-0.00446115339622605
0.006544311541455872
0.002441956569750575
-0.0007881080294142133
-0.008778886857890352
0.00250708817346187
0.00198051679136476
-0.0004562791322092678
0.03953796896401835
0.02276254221980265
0.003211224964309234
0.001227455369390366
0.002589881697215134
0.002610299378329523
-0.005198232771394511
0.06317588223297094
0.02349959862272236
0.01448395640707788
0.02187648454954985
0.001795702414550732
0.003724929907543242
0.003923551811791678
0.00470871594732708
0.01466917203322936
0.004765703340578438
0.03164569375864217
0.00712303075527528
0.04894836016226572
0.007243454807671398
-0.0009633578171990004
-0.0314930287285803
0.006826174695629519
0.01799546107019009
-0.001543124764015515
-0.004478295777925373
0.006382330744237602
0.03271085683404167
-0.001997918840746397
-0.006403496022524286
-0.004034532259364754
0.02367667099005901
-0.004753518027443627
-0.0001007880474576103
-0.004035079166929762
0.02085208012921014
0.01592867117662211
0.006989581014207078
0.04505797420840257
-0.01053603753035262
0.004134607635415289
-9.00256587421004e-05
-0.0007967481442250962
-0.003722962871439747
0.02082867579230428
0.008541607016469261
0.01245458787543735
0.01028199678176612
0.005287901914180727
0.007973835649728948
0.00162010807236181
-0.01398689263759851
-0.0002575331333391211
-0.0009346551297498165
0.005620211432266512
-0.005700763303924505
-0.001009474044527991
0.08958166736631477
0.005366314118920917
0.006347707188107473
-0.001753821899042131
0.01497266517702541
0.005400193094529736
0.006155907826225287
0.03585951412171134
0.005267085715909841
-0.00621311657077143
-0.006338537864563335
0.04511853563385732
0.0200838003532924
-0.002518194667342284
-0.002618243653200538
-0.00303860498529453
0.0199278268234227
0.004748746602683422
0.004458015343909536
0.004662780192747536
0.004620917409337269
-0.009167153904896554
0.003255910885607074
0.003091748395018243
-0.02458028700743571
0.1389580809311803
0.05693701894315929
0.05373924093882492
-0.004327451030096191
0.05362472072474235
0.05909821524372083
0.004226478447390019
0.1019715468493132
0.001896712873565115
0.05711361160225559
0.02535102489356789
0.009303740059814953
0.008414131213143721
0.0220577458946198
0.03377027297841898
0.006042547176602915
0.05479943813290411
0.01718485701203412
0.05540072083423284
0.02016909475175434
0.02118031632038752
0.001888456594570943
0.007322574764008374
0.02496599880963815
0.02412218661221503
0.0231642726867145
0.01499398651678396
0.02222785194556677
0.04021325881470989
0.002157993537186297
-0.03152740104503921
0.003054945622427827
-0.02372753404236513
0.01962667596259363
0.02463437578651833
0.02759974297505835
0.02454000572739987
0.005454586382139332
0.03905342034569342
0.03813299537234344
0.04443639053445532
0.007563243877388944
-0.02617702689901069
0.002110801785916339
-0.02283194060094801
0.06642879216366547
0.03492605705697234
0.001667978914579772
0.02542456882885023
0.0516842172620765
-0.004915442683040129
0.002563026998543588
-0.01794656872687878
0.002955839757204063
0.007963109084462532
0.0262878481594998
0.007086864375695614
0.09906089432472051
-0.02571604594016792
0.01934043419177839
-0.00185020865660672
-0.001309748513787136
-0.002486913640829802
-0.0004478976032522604
-0.0007273761510228296
0.09908515459816818
0.007145961970600179
0.004983458203655412
0.006801461715858938
0.006882949936847428
0.006485609321045063
0.02846795083075096
0.00958778695631686
0.006918194112989353
0.007365606907499943
0.0305704539687911
0.01950711254150689
0.07832707898308261
0.03099836313972195
0.09306734212730754
0.04134154311974774
0.01868588965515546
-0.01324480958463462
-0.005549730894951119
0.02449102820341904
0.01550790952126654
0.02054032918367748
0.01270545032527854
0.0360933747598967
0.03652694326059961
0.03687959447140614
0.03523249934441607
0.001702847069436572
0.03823690795779464
0.01353073823721723
0.0170946106901182
0.0148962954565464
0.01021657534275778
-0.001130379224450202
0.0003280226811980807
0.02335706892245117
-0.03137672006012174
0.01551288443917616
0.01686042851711054
0.005290932217750509
0.02082699757268144
0.01409920426184369
0.007288469086831738
0.05394910836824315
0.0125229709287676
0.01008028408437859
0.004646363738786281
0.00325959240008661
0.004594843579567757
0.004550878790681402
0.003274271004465853
0.003091038144088511
0.003343750898034998
0.003562715295087207
-0.02448238855220048
-0.002895895504803578
-0.006752039483636976
0.02683695229236983
0.04710309012433045
0.1144348613892803
0.03732401207594824
0.02354599995959084
-0.002032158328680109
-0.05349881127374275
-0.004718142347533818
0.003510168916942689
0.01291728662285099
-0.001844328983447029
-0.001610489482356085
-0.01156287638193229
-0.001038994178230689
-0.001262474405229005
-0.001102784566903141
-0.01386232178936692
-0.001532171587716757
-0.04158919668581381
0.001331596679571266
0.02816674168589827
0.08440063310154564
0.006692403912803254
0.02665763811450838
0.02526356316965971
0.007987311167845382
0.004054975487762298
0.005517719774207989
0.00506609502082192
0.005013173949055943
0.005117125919335164
0.006143540463553129
0.004860336629481305
0.0048983845411574
0.003701336513194263
0.005765680861867677
-0.002902541081151046
0.006265453755712865
0.02170341821481811
0.03832503823609605
0.004361897257873728
-0.009833356198775742
0.01401080211661069
0.004661057738451917
0.03210770023737061
0.01202348285342684
0.02001553913947723
0.004755069053370116
0.005167413202517538
0.005078958932099414
0.003809039134245129
-0.03892619020910892
0.003850838871573185
0.004016641056356975
0.003690683841048139
0.00403326686792842
0.003520075630635258
0.05090911123257673
0.003165010791326457
0.005481170575939226
0.01376545412488067
0.002021587995456666
0.0006357332512999997
0.003751848773549717
-0.017826835990368
0.004282722424212612
0.001302232205835737
0.00129877024908926
0.03695544061111129
0.03387383738554937
-0.005270403862824212
0.03751957050419531
0.00433523900799489
0.03209805311641609
0.004692847124501657
0.03340142783824476
-0.01684551289999806
0.03393777620311625
0.02340691885669869
0.0176991917040672
0.01222502400939338
0.02387058046719549
0.03473325796421162
0.01088321855831654
0.03559700354422415
0.001642761324577327
0.003584399057690357
0.001948761243026814
0.00443072091166486
0.001261280408514923
-0.0232907432859607
0.001691973389344317
0.002081948567093123
0.01299841514676873
0.02123005425002444
0.003916403348736244
0.02858713437092302
0.03352149391168363
0.02947104429077825
0.003351931052142475
0.02867006172735265
0.005780649044307616
0.02469250972923793
0.003450483796662058
-0.008720379751709036
-0.005041930321248497
-0.007501235395888561
-0.0001296999573210864
-0.001940007917249468
-0.01553805530432529
0.04197461038314505
0.0008157404589619802
0.08019935106959611
-0.0122836569286127
-0.01065937118218893
-0.0319946629750378
-0.003302991108540443
0.01087830347878979
-0.05239439455463683
-0.002400366709803882
0.02386381152608148
-0.01150997843982014
-0.0346206079142862
0.0242482979457527
-0.000731967771190555
-0.003375256416432828
0.004581278420487817
0.003601063294188898
-0.01005505573824486
-0.008199840145095307
-0.008667769834590725
-0.01336664631704546
0.04516588799968344
-0.01972238134636447
-0.01756402145021787
-0.04754832598984012
-0.003211750360380973
-0.002257104894490635
0.003978359977012757
0.003852658164454495
0.002211963306329752
0.003433578368840252
0.001875997061976784
-0.003170293893718279
-0.005431680461902784
-0.00424141496272301
-0.006642967371204764
-0.005744863265405827
-0.007494040325397302
-0.003766545513565721
-0.005329528190299682
-0.02733308239310111
0.01661368830485898
0.02395533239076861
0.01912603759534489
-0.005635220102924155
0.0113065696929004
0.0126638889011343
0.007016884662314345
0.007646622445172111
0.04055056682609087
0.004386310964329268
-0.008068831753144894
0.04913417943142907
0.005180318273104528
0.00512407300015402
0.005218779251410141
0.01248960524172595
0.00815548401267488
0.005233825802242457
-0.005904010970309974
-0.004246901642173606
-0.007222338859680805
0.005148348141382289
0.02223016954275254
0.015704103175739
0.01559514854818499
0.0141050392511298
0.01430895669049085
-0.00919562806085732
0.01433373804428753
0.009997729728885168
0.003477425251746255
0.003830076612793666
0.001722794529740669
-0.001393879429360384
0.0002012962702961734
0.0007993150624064128
0.003736513229298901
0.001938973263539247
0.00217023802194962
0.004132996583569363
-0.001961432801225923
0.002470143116405087
-0.016404656396152
0.000149550416808251
0.00925980988232889
0.001555737327386143
-0.004504940782933483
-0.004939657973999355
0.0005783917952126388
0.002160189694451603
0.0009022503710983503
0.007022184210448091
0.0067206740497264
0.007503462833128763
0.001700609246140395
0.008774863792047963
0.007266474015211388
0.007706624421795106
0.007080980752908377
0.01572343201627335
0.01805085562902754
0.01639599672855124
-0.002691353413650258
-0.003361719480206
-0.002691142711210909
-0.00480424648299147
-0.004084921306470924
-0.004697498638552192
-0.0008967057579098466
0.03486183245636427
-0.001660109913070098
-0.008203124596846528
-0.003851322193136229
-0.002188410330744931
-0.00272298186946233
-0.003165506075981998
-0.002057452555110294
-0.002811361098069722
-0.004210656010588684
-0.004054125328892767
0.00384838838023609
-0.004087795095969638
0.03146420676234071
-0.003390527782047765
-0.001119429779870904
0.003146041347338972
0.003155160662418588
0.02994258864038277
0.008182932245790479
0.002174671538543927
0.0009059951502695614
0.002491061560946997
0.02978014745408928
0.04268496935664869
0.009077869277769868
0.03469285034486336
0.01635122014089223
0.007290408436055525
0.01921339541956458
0.04452533719142586
0.04403121758793135
0.04832639084111604
0.04667159145139175
0.04096258788626759
0.008113807187736652
0.03657380662431883
0.03984856757367666
-0.007231028066166189
-0.004132052918350684
-0.003770766340514267
-0.005173080790477175
-0.005289991403673437
-0.0007673921775879848
-0.001705121122055799
-0.004498228966370203
0.003441394153182561
0.0003813736905566948
0.01885225160618467
0.005534226226798634
0.01695847265280102
0.001999428579524777
0.003445821016442742
0.003084776006707565
-0.002528291703473449
0.006972202047592605
0.003348264280919506
0.001871069818464561
0.006294585609176866
0.004686879843356345
0.002369265310711796
0.0009247198461323233
-0.04884626806057013
0.03398604512506982
0.03142047954472584
0.002713761396408297
0.009050051290431937
-0.01018815317831003
-0.001075253554326983
-0.003648993877810997
-0.001544836943226015
-0.003296524141367568
-0.00244484682757862
-0.003599254443070589
-0.004159809663472357
-0.003747956340618442
-0.003162136215921893
-0.0004324312339853409
-0.001125063015684618
-0.00159590783219363
-0.009550056284065618
-0.003205498212532885
-0.002847061865935475
0.01881042784514953
0.02247364049051923
0.02273884453835505
0.01919444344946928
0.0189439417502342
-0.004202731419597244
0.01760057553366771
0.01713796373537341
0.006079696804491683
0.007268667116570071
0.01222528284809685
0.01621576611165861
0.01487971078676762
0.01829309953161798
-0.01398955176079362
0.02067870735533156
0.02121686954496929
0.02078075701129731
0.02400556207104965
0.02315724976322076
0.0336250789615038
0.03282570139859776
0.03596942877901182
-0.01208670756472057
-0.01210071680811782
-0.01519923577366822
0.01512172193827995
-0.003228143010790455
-0.003472245265548195
0.003485047149272182
0.002097596730889568
-0.007309425929403623
-0.003869627257647173
-0.004494747461871947
-0.004776472941425739
-0.001393665145970058
-0.03158655810174986
0.007360166897210133
0.009181177334219019
0.006918157716253199
0.006585438869462896
0.005254010975771485
0.009836398337761825
0.01466382629906687
-0.002093106248925396
0.002916051978240469
0.00454168538387335
0.04273185295350609
-0.008828622558457075
0.008291500023042875
-0.01949541326266026
-0.009492307522244035
-0.004317713445955092
0.01050432058710498
-0.002563735890241518
-0.001253081935214066
-0.007784807722062425
0.01728230967105504
0.009773106311517845
0.001004907106449235
-0.002169402285325581
0.01101231855742173
1.802731186437603e-05
-0.003755188158052734
-0.004230936217487779
-0.003417041309742275
0.007407007304092175
0.008911201666262835
0.009124511234137978
0.008130248776209976
0.00861459137375915
0.009147791843582173
0.0130752819799824
0.01261697760023908
0.01144664400909907
0.01169340138212018
0.01277803575289938
0.01293001493570549
0.007533355544557336
0.007221611197139006
0.007392064346179676
0.006972995723831928
0.006007295198639623
0.009349601417974274
0.009506823427238433
0.006352531746497917
0.005970592664135952
-0.03330454372466488
0.008727882981619384
0.008427229797877155
0.009033508848555501
0.003780681928121121
0.002704052270438875
0.004304325420310117
0.01903999814464095
0.0169055029467103
0.01702650584398581
0.002880213117086202
0.01602779949578252
0.0270719355628997
0.02738999817484758
0.02990108531569162
0.008252350453540242
0.009273830997142931
0.008677713533434966
0.01020073308279413
0.0126933305623702
0.0103760507262698
-0.002099367948518361
0.001761335031720614
0.003045723888904444
0.005294898334650936
-0.006830808135363191
-0.006625318134033858
-0.006763186349289831
-0.001191781613618507
-0.007132924152655698
-0.01548492444142392
0.02108416939610869
0.01028217412944586
0.01139757564281123
0.01156014238239531
0.01131481721044412
0.01033059926858955
0.01151025643196827
-0.07471934654267216
-0.001575607389808696
-0.003194748806091255
0.0009201148703073801
-0.0009151679884866874
-0.0005589006563246686
1.003157491752303e-05
0.0001695550671803596
0.0006348539997960512
-0.04408651170995735
0.005070093834315551
0.006446639181188171
0.00263526915218953
0.006112274588373415
0.007515743691080629
0.006996979962767418
0.007682666975268855
-0.002022607305466307
-0.001107540795459639
-0.001816104003268056
-0.001441887992847912
-0.002698264084567979
0.0005448608795877511
-0.001578195475222775
-0.000695428246525013
0.002110575352046624
-0.001675256675574752
-0.005320184379539432
-0.00875555333231485
-0.008504886301289568
-0.006043381796985514
-0.03192748675061136
0.01471284998928546
0.01151871145549981
-0.004982579911301346
-0.00902353348249834
-0.004820354646151741
-0.00501727899471818
-0.002283822441534692
-0.001667760181665496
-0.002440274219466414
-0.001807819158802158
-0.005629953030557326
0.02928417029449964
0.005164539297873218
0.003936838841598543
0.003244919445069207
0.00222425396302461
0.00354259741191618
-0.001458315600063879
-0.003743975224176673
-0.004402756932542893
-0.003157618477688976
-0.002840494975420263
0.0001575483124643228
-0.002361516249338618
-0.006920625616899503
-0.009589102334442124
-0.006928477302884373
0.003595456003452036
0.004498310214542061
0.004427872194113598
0.005803551060505175
0.004018917150999309