/*--------------------------------*- C++ -*----------------------------------*\
| =========                 |                                                 |
| \\      /  F ield         | OpenFOAM: The Open Source CFD Toolbox           |
|  \\    /   O peration     | Version:  v1906                                 |
|   \\  /    A nd           | Web:      www.OpenFOAM.com                      |
|    \\/     M anipulation  |                                                 |
\*---------------------------------------------------------------------------*/
FoamFile
{
    version     2.0;
    format      ascii;
    class       surfaceScalarField;
    location    "0.4";
    object      phi;
}
// * * * * * * * * * * * * * * * * * * * * * * * * * * * * * * * * * * * * * //

dimensions      [0 3 -1 0 0 0 0];
oriented        oriented;


internalField   nonuniform List<scalar> 
37380
(
-0.3775945029590087
1.004083679633499
-2.772674584507059
2.146185407827582
-5.162719663094984
0.806310056674037
52.37018760842761
-48.01377800200601
-18.28088053814459
21.920479501592
-22.79537038452919
19.1557714210752
16.79882755823157
18.25881931841561
-18.5420755010419
-16.51557137560545
-5.07881345935623
16.72711657515266
2.823646020513906
-14.47194913631123
9.393381020206551
28.05389168603829
-20.94971604988141
-16.49755665636679
-10.19019196859136
-24.85969017951281
44.44326316830941
6.967569063148553
-2.975617233610967
7.606730903313474
-11.59868273284188
9.647674485979286
0.4359400290590179
-7.435345462002749
-2.648269053041057
-8.909282594296089
7.609055575994825
-3.176469123532122
4.476696141859371
-7.542258051137194
-7.298003333999286
14.83984368042431
44.35039137846019
-10.6311499254143
-22.3396606289126
-11.37958082413508
0.8359137194532155
4.852334457047101
6.94201321846809
-24.12849880646418
12.33415113094865
-14.94159723242694
23.74729567304266
-3.417056731573252
-5.388641709039837
-1.497253128746131
-0.9654893101751684
20.45649099778826
-17.99374855889199
4.407532382506172
-0.01872844332017173
-19.33040117161277
21.12417002799735
13.4126303040789
-10.78950465903432
-14.15908509019512
-9.921186001449135
-1.582242208414032
25.66251330005504
-17.94864350236564
2.31734930622265
0.3139791055799207
15.31731509057704
-0.07448045822394318
13.59011570957027
-6.548066188186631
7.276020552192164
2.773706037953244
2.516554662108047
-12.56628125218305
13.58290633914639
-1.526722878417928
8.276274682412728
16.64704077481535
-3.799145429234714
-8.328315038051731
15.13442774704171
11.09796246423123
-17.90407517318986
-6.218435095865494
-2.197881972891838
8.852257097831306
-9.729022133838907
5.605284482567222
-6.400073843139399
10.52381149445799
-3.235191851099535
-15.90417309979105
0.782088353311377
18.35727659758311
-5.093709814111874
-16.72876471626942
6.427745224424985
15.39472930595496
13.99438286976596
19.53521723489438
-0.9030965043692079
-32.62650360029085
-10.15168701464477
7.738285167613935
3.93471745432085
-1.521315607291017
20.81400551050296
0.375055450947368
-24.42425281254972
-17.58697150789409
-25.34603951190955
19.07995211003988
23.85305890975155
-14.33444018797175
15.42374684499259
19.72469885347993
8.562292854403196
-8.747891140628804
12.9732734199961
-12.78767513377308
-8.057912652535883
10.6090460547443
-12.9117425832986
10.36060918108805
-23.75137961336923
7.417301277213127
-9.022722428669461
25.35680076477439
9.290274081712939
8.777950210011127
-18.06842582624604
4.579268683933408
2.628834101834378
-10.18372001936564
9.074021645539847
-7.309667500970567
7.525919937143259
-27.4026317557476
1.955974208808561
24.24349485525605
1.203162691688429
1.460000534528486
1.294229339716485
16.38535221318472
-12.80460500888631
-3.129669359001698
-0.4510778452976261
9.109794586463547
-23.36319000886218
14.85924138039391
-0.6058459579952502
9.209356161249724
-11.83644861128741
28.13119686758736
-25.50410441755158
19.29997753597376
-8.688560460829841
-8.235556127840265
-2.375860947317473
18.8786862327222
-18.96399906750976
-0.810300466241245
0.8956133010189239
4.825792654043303
6.974322300627501
8.360717184370802
9.449252602700154
-16.69001841985058
-1.053515165690158
8.294280982834525
-1.892267575022446
29.90094142232541
-2.918525460972463
-25.0901483863344
-15.57682009681422
-9.50438094250843
10.26166677730406
14.8195342620164
-0.1411359533962058
-12.27636194912126
12.41751334010781
27.86108094803289
3.219783798463297
-10.75829386327733
-20.32257088321939
12.31336550217148
-6.314699555714199
-4.657766615899349
-1.340899330561165
37.09780257815442
-25.55175316150153
-34.52687253519909
22.98082311853567
0.1582988925019701
-28.51265670291227
-1.057270835004966
29.4116286454084
-16.11750977812815
13.55523121728885
6.851224700547434
-4.288946139690008
13.93690442079116
0.3510759099654125
-17.23967805929179
2.951697728518563
-22.20581025491186
15.4182494065385
9.944051347467406
-3.156490499099351
22.83166448308804
-22.06664747641413
-15.3795689887624
14.61455198208712
0.3896381626719369
6.645880854860105
-23.83800250743205
16.80248348989806
6.200464421620439
-8.321851759114566
-16.82211513364185
18.94350247113463
-22.64002177106201
2.169695813611778
20.0726561288964
0.3976698285575461
-6.763867597452076
-11.49344765689595
25.64223688364553
-7.384921629298373
-28.97492625902506
-17.01125731837476
16.95077163402323
29.03541194337101
-21.77887169219178
7.071992109942304
0.5978763892044466
14.109003193044
13.8824790564034
-21.00203291196003
-20.28307790018013
-11.0885517478271
16.29831796429493
-9.213112980139549
4.003346763671218
13.57985764971807
-18.67500629691245
14.90729158497202
-9.812142937783612
-21.87310065296774
30.75156397420211
-24.94286694508532
16.06440362384292
23.17748203363089
7.011437263053455
-27.70174740215781
-2.487171894526315
-16.79219136726425
-3.712361616317818
12.22386930504585
8.280683678533549
-1.3253915728259
5.210996764090511
6.168338213915001
-7.807504625838873
-0.0990861070535097
13.08131492856191
-27.28071127759712
14.29848245607592
6.973284710405537
-16.31144870888475
18.82891211482765
-17.14663230104518
26.87632235931625
-9.729879793720215
-11.31224207616533
-10.44171137472192
21.75268227636578
24.59230689913379
-10.46650923402702
-0.243318608701672
13.54718687114791
11.33665826024708
2.622764029425148
-27.50660916082382
-20.93108085704771
8.150326111777792
6.576665441816384
6.20408930340039
4.425598463378202
4.842886340818701
14.41713776391186
-23.68562256810636
-7.855149409936539
-12.41397191638389
2.354305417667839
17.91481590862207
10.46078106821132
0.7825041213139607
-15.8461830161862
4.602897826664501
-33.11775205398453
-1.724508214411991
8.336855283941084
26.50540498448272
-24.37802136165524
3.872735436540931
-12.61246612886507
-16.20786571610079
-1.054153197378949
30.44179640563595
-13.17977749215739
-15.44169844121775
15.93670587988626
-0.4953340839627066
-4.147317759914308
-12.65065100152725
18.44816758566638
15.5190191454931
-3.138274640016145
-1.416209523990543
-10.96453498147884
-6.604490780048326
5.86660934170959
-0.9743942737804396
-4.91989778156257
-0.7101987246927587
5.887653352741916
-0.2118653784341761
-14.55798365820809
15.03508614388009
-12.69908189682336
12.22197941115006
-0.8064636307112277
-7.704315244107578
6.229077178552963
-11.03558853872541
-19.34541395486834
-3.463018867093349
6.600567105860608
-14.25476594488703
-0.303441560450849
-3.368436636256309
7.958597053806786
13.09206219526951
-17.68222261279489
-0.4339218712380938
18.54385607400209
-18.11001054225135
18.95412912892083
13.24521830107926
-21.82571239240574
-10.37363503759632
-38.07194798234665
0.06971603677290299
20.9325051870505
17.06972675852081
4.401891218079485
-30.71920198801719
-1.864972529109429
28.1822832990443
29.20901784810967
-25.17514669251481
0.3680200624830833
-0.08478218539389185
-14.36353377733506
-10.75673466542235
25.20505062812742
-13.39145912611939
-2.598900945215505
18.2830058090433
-2.292645737708765
-26.79552680939028
23.42766643286891
-30.65367678227055
34.02153715878639
11.85530591002931
-5.761448154333765
21.2029868249066
-18.59026734709191
-7.694519401660638
-7.458982746918648
15.15325843808004
11.23827575397345
-13.51138801368579
13.95672693498672
-11.68361467527706
-20.17564682243268
11.56008748862732
5.85345090813498
2.76210842568544
-4.959483479004589
20.56221856925215
3.25931327336278
-18.86204836360647
-17.00235753767235
12.54100386353208
-5.138978424551353
9.600332098719363
-9.908923811898642
0.7877000373878228
-3.096853821924127
1.037445240316736
0.9939638309746814
-7.251432667520871
5.220023596229011
2.467322381301818
-5.914448701669982
-13.23162829926472
-17.67329784141685
29.31908447051135
-10.17043917979416
-1.475347449305245
7.062139734084194
1.199422553414504
-7.224117047171201
-19.53013997832029
-12.223400090715
16.90072605384962
14.85281401518209
-1.719759165536453
8.156189346026782
17.7757473603504
-37.31348497825937
11.38154827188106
4.977201709514515
-3.32603803275363
-9.16666323906052
0.3030806019280331
6.808271440104074
15.06212296334449
-14.13664943979934
-7.733744963644735
1.559451899966809
-7.558657854703008
-15.79840226764286
6.97134770209637
15.45595515799235
-6.628900592453157
23.13582724475571
2.757131043660502
-18.8564338226881
-7.036524465730251
-6.83449148256411
-0.5694610210357107
-13.52712835347898
10.7758044595728
0.7911247963349343
-5.739457514429415
-5.82747174146662
19.00365539330511
-18.38833223256414
23.11443257798977
-23.729755738732
-6.078008888730452
-12.15813410203394
1.552432785119122
16.68371020563578
-0.2504484808764857
-13.09395065863123
13.34437578909471
17.28570197106758
12.65924764157378
-6.989549093390353
-22.95540051919335
13.11981841648731
-1.797990355803903
21.67712163378113
-32.99894969446734
-14.50652229516119
4.263749689587089
-18.35944961926128
14.12086393268413
-0.02516400294789923
-24.70540439658749
-11.80941533680229
-3.021740640334867
16.66419235492824
-12.84431187134276
-0.7981398432334537
20.67165749143133
-16.43676300092049
8.884923925974391
-9.057781474746188
9.136277191941508
-32.44203009312628
16.83817984581772
10.60633551730055
4.997514730007347
1.72200413923485
-2.5514033521457
0.3470881537991902
0.4823110591116518
17.56186358476
-10.62347265426545
-24.69956015614972
17.76116922565471
-6.412719367063781
9.625798878224622
-17.6723596446802
19.61089206476022
-11.56433129830508
-8.704605117389097
7.6848773711962
-27.69841992211284
28.71814766832274
-7.716077403401715
23.54386065871508
-2.680593636098951
-13.14718961921864
-9.70919053525267
5.74988900881354
-24.25512781041385
28.21442933686541
17.96226334082449
-9.184499730501985
-21.11580309578281
22.22467271049862
-18.3224075545427
6.244661415412707
-25.72843079171363
26.09223650760862
-6.608467131304108
6.519640344711643
-29.95052653016304
7.881210152019673
15.5496760334321
-0.4560933193766039
-0.3859882563818581
0.9201337633782026
-0.07805218756197256
-12.12855738160091
5.748153782872571
7.950976963850776
7.833956832797316
25.30754473008796
14.21306649204125
-19.6408796036534
-19.87973161848418
-2.108064221745845
1.371683808789859
-8.321401061780852
20.27876955416711
-0.2745917520268307
-20.00418365167696
9.227791532605968
18.01244886555037
-12.97342951196086
-14.16079245869265
9.121773105099644
-16.56319788194111
-2.203461942389291
24.42284484175836
-5.656185017429957
-8.658643229514457
12.22275116588414
-20.12730581831261
-23.4439919075643
30.49280703477407
-2.773436392360138
-4.27537873484645
-2.676572225011836
-5.039575057082561
-1.64456801504113
9.360715297138119
-1.311980987168315
26.73434907539033
-25.42241073803189
-10.65520892343304
-29.73991030789423
16.95112732376127
-10.13480674922383
-4.883662828926764
-6.270949984499185
13.82432495855979
10.38654356370023
-20.83972506063898
10.45265675890587
-8.874833992540784
20.49569700871138
0.6224157982188151
32.50797770557229
-15.57820628973929
-17.55218721405397
-9.764571778993274
19.87857881235302
-10.11419435366446
-13.13477585780199
28.19826223521467
-3.630454287793182
-10.07928039023345
11.03316245302346
14.92807416208374
-9.897170366302921
-2.374491315708145
-2.656412480095359
-6.420289608338896
-14.34274987025884
21.67043751282456
-0.9073980342271194
9.378726317880433
9.186980980732136
-5.752814079666552
28.96007831582975
6.009992568097128
-29.21725680422799
-24.53378010395354
0.1385557636760235
24.39525557385797
20.10793952910401
0.7469068388868525
-1.535937777120448
-19.3189085908713
25.52129125050673
-16.99704459567946
7.126588948903303
-15.65083560373857
-4.101256975367228
13.52420993852329
-4.426903062939064
-4.996049900214873
16.71421384094684
5.943706210808018
-10.34042413290368
-12.31749591884471
-4.118992937124593
6.516304384983802
15.12053197059744
-17.51784341845734
12.44082390745293
-10.80012072791246
22.36626323948447
-24.00696641902541
0.02492965352178209
-0.03260165960799773
15.52469990095934
-15.51702789487508
3.167931195912282
5.924837957481314
1.683035306181129
-0.01385714304769543
-20.10489057978836
20.10111016284707
0.0176375599885751
21.70252970141145
12.86722812388013
-22.7532255072943
-11.81653231800461
-8.419188517386903
-7.63904972456215
-2.012766225549789
18.07100446749842
-6.439181500291059
25.1744328512161
-15.68020849518898
-3.055042855744294
-11.31617441399622
30.63825093909796
-11.40196545899609
-7.920111066114147
16.20325640775094
-15.22106440081888
0.7283238226726249
-1.710515829612053
-1.921118631948261
-1.294913166456223
19.41928820615047
15.9363899378865
-22.13175605931904
-13.08751880524073
19.28288492667357
19.12188378972575
7.097270602493387
-23.69708946386883
-2.522064928354565
2.962554102598229
-20.02243722545501
17.05979180520002
14.30387827800733
-16.59713764503008
10.65003486521039
-8.356775498196617
22.35885709177381
-0.6303642512450285
-22.31192307461626
0.5834302340868955
-19.05307738016436
19.92663858777901
-2.794679839568958
1.584166090322935
-17.93696497599053
15.86840660548557
0.4843922801850987
16.73173731309543
9.197306363375125
-8.933211620223316
-13.09995378893317
13.16072846778996
-0.06066378147146964
-18.6665645015351
5.594427593906089
15.04224665608199
-1.970109748453549
18.94161726834536
-8.689942994950902
-10.25546572451247
-9.662401552058656
12.84309424024661
10.36099223007658
-27.57897536013746
-3.245462329218894
2.761090593539956
28.06334709579688
0.02254428638930613
-18.50875506317393
18.48614865664162
15.00396698306953
-26.43842222981408
16.83002394265395
-5.395568695910901
5.775383327297541
-5.468064093316984
-15.20964970422113
14.90233047023465
20.10027959898415
15.08471020903765
-14.90622025385566
5.776809331309416
1.72406003638479
8.698415333019046
-24.88829129196995
35.73802634419046
-2.811510647010093
-8.038224405219351
-14.61720812563085
35.71564768773737
-32.58017771525232
11.48173815314505
1.186443588112298
-21.70951919827816
2.998283517611909
17.5247920925525
-13.5673208425456
-9.100737376742718
30.79448997396695
-8.126431754674545
8.741130706247603
8.052678435926591
9.223408464216714
8.267643558948844
-17.4915714257048
-1.434258186773893
-27.39010963182959
29.43704857101782
-0.6126807524152683
21.78077356056324
-0.1416754139075552
-21.63904528403612
-20.02532187255748
14.20176285546371
6.50847274260811
-0.684913725486512
21.06057429302288
-20.3508009132272
-11.6862995120377
10.97652613224195
-17.93522813651596
-15.30979205655417
20.1262047094322
13.11881548363764
-13.92174140046075
8.625248679505162
-14.84153794231553
20.13803066327132
9.969575140760647
-21.71398901026206
7.764128765275563
10.31799798765482
-12.23507196714819
-5.84705478578363
2.404180145483414
7.852688160885066
-25.60926082688522
4.95089197703092
1.179359709791091
19.47900914007219
3.842507629462794
-19.31472327778614
-5.635621401423179
21.10783704974987
-12.62016606836705
13.23722356450934
-15.15014607030902
14.53308857416072
12.27654162313183
-12.13309741423468
8.662138135886554
-8.805582344791484
-14.82546116067382
-5.608375011191325
6.24939500498053
14.18444116687899
-11.69589089365421
7.383016705305478
27.44870143310278
-1.671133168339933
-24.76334364329527
2.476989131441093
23.95748768018931
-15.50200610810878
-0.02055492002196081
15.522584199649
-1.477808810876596
13.47561763433264
-11.99792737604851
-26.44405961276037
22.41605427113453
-1.091232405083904
5.119237746708482
-17.16205937254904
0.4910880892429453
17.42430559335293
-0.7533343100514297
-20.9841607747478
0.06987388314696942
10.77532391585559
29.24467386011168
12.45306119441169
-25.61327013822454
-16.08446491630741
10.21585232852828
9.11301590752772
-15.73498847246691
-18.36742961167251
10.79544391347686
23.30697417065924
13.44772952126302
-15.94458151004599
10.26098075405686
28.09784179858982
-22.28022496136336
-20.22447837920523
14.40686154197768
-17.59027509167001
-10.16198348823453
14.35594656200755
13.39631201790785
9.504057802363141
-22.24216711318639
-2.996879161649086
-10.31301537582346
-6.432406540748433
16.74521772183361
-12.74609152027464
14.96855842049407
15.61108271786056
-17.83354961807189
0.3856996986978532
-0.2388984293174531
18.69013581941678
-18.83693708879826
-18.84984867287812
0.1302336567798777
18.71946904280117
-1.30984006007665
-14.93372642569229
25.74762428812612
18.73928781918993
-7.34430858119192
-12.70481929808351
-14.92898980878394
11.47890559647673
30.27973547933913
-23.01935325664001
-18.35452698719202
-8.587750955195407
12.00855151669218
-8.745615097753705
1.838764732143581
-7.072798556938581
13.97964892254839
-21.36885445987031
10.76655250368035
10.60179520328958
18.55470812325004
-5.854456569114859
8.057260739786887
-20.75751229392364
7.513262745193255
34.53825962421909
-3.030268975590508
-39.02125339380019
-1.007439868741726
-3.432675364820001
16.89877988555207
0.8522512914536776
-14.3183558121884
6.128606193606487
-2.431982629350356
15.89005962136576
-19.58668318561481
-15.78974591652426
32.09218449573012
-2.15501455416553
-14.14742402504068
0.6333713521530152
-0.8621357877993385
31.2067840844158
-30.97801964878644
9.619097370593673
-0.548437052037176
11.36121991272297
1.715098143437232
1.752193454195313
-14.8285115103595
-3.944583971549369
3.268648796954136
6.563588527342768
-15.6139598795925
18.68116480866978
-1.359304266950157
-1.707900662146817
-20.64806228530833
22.50872260268477
-5.734416086618651
18.53609433383147
-19.54101933837758
6.739341091160983
-1.44047783128492
7.114991230360664
0.6565694007134686
31.2520879437269
-3.278945072906123
-28.62971227156591
-12.31368243657164
1.021038774399628
13.61670236019355
-1.123527993077312
15.24211901267867
-27.73529337981224
-25.19131885287894
10.81495248469788
1.963256652867813
12.41310971529251
-6.89106888873811
-0.2745502294626113
-8.70974723648604
-9.750686868229206
3.863118280576526
19.82808085463594
-4.289984723611306
-29.54083038858077
-10.95670908422777
10.85773055855594
-0.2473359931722798
-17.17244936680143
38.87678678132773
-21.45700142135966
-33.27000266321462
17.80616216149716
-1.965333430408577
17.42917393212689
-0.06456542257505106
-20.25574404279565
0.05747911447193643
20.26283035089795
12.85126264497917
-34.89378106507887
12.76699944294173
9.275518977150277
-17.62487902347801
6.050262530781664
-15.2846126313592
15.2843862672409
11.4505136455155
21.97908389329784
-25.94980146470963
-7.479796074106909
0.08756073532522488
-22.61175598000129
-0.07651746824570455
22.60071271291894
-9.743410848412717
25.23580529501374
-26.14132754098292
10.64893309438121
2.876729321344012
-15.38130135662157
4.663784695120213
7.840787340147541
1.451744724568231
31.16162374265133
-21.16285482170602
11.99459403209353
-11.29057610970837
-6.573563956736884
5.869546034350657
-5.708351740642724
-4.042903136055908
24.56376731032515
-14.81251243362619
-35.54550353967084
5.729401210381322
2.529546358020301
27.28655597126767
9.389055990127487
19.3462028798975
-9.322128964355553
21.98191191257418
17.99455902559552
-25.68416102453811
-14.2923099136251
15.1715346180761
-15.49320204546024
-5.24039479889078
5.562062226274732
-11.51667569753009
21.37729208731086
-9.860828456484411
28.22974748549007
-23.07170329529858
-21.76202809235382
16.6039839021122
4.906771014137985
-18.99801783990754
12.44547823113391
1.645768594634965
-1.033752081795644
24.00960652148277
4.121539331009918
-27.09739377069792
2.135061993614292
39.72014622194202
-14.9681020643102
-26.88710615121214
-0.2646844713159505
3.016150701825017
29.06699187828021
-31.81845810881634
6.599065631565026
2.752234768122116
-14.70513030447455
5.353829904786935
-4.89546493225026
15.2567310188778
-2.196849132181216
-8.164416954494163
-15.97382715071057
-9.647948718970209
3.317286451838203
22.30448941784426
4.743432100327867
-19.72108173637876
-5.446397351664991
20.42404698771623
6.924577817766331
14.09402077261892
1.080974241714783
5.341347056564079
-8.53038552001448
8.680857120008433
10.87059226515413
-0.6708716882016306
-18.88057769696685
-0.532125109757455
5.44693356346238
-6.634567619239391
10.51048330248972
2.937142338564525
24.48355936050113
-16.05140837824674
-12.48570249029327
4.053551508040242
0.7812505729160009
-0.8015378565771141
-23.50949882185009
23.52978610550031
-2.664635504100608
11.11273934787791
-13.12817386120901
4.680070017419337
-10.26304298269483
34.56818258816208
-2.6026099040609
3.969383994989517
7.674056536609618
0.07352028482641054
-0.08255167714715342
0.5815390387912966
-0.5725076464410638
11.64505100289395
3.672332719158522
2.833739859186959
11.18734324064589
-0.1615049675865003
-1.425506174344229
19.37908386314957
4.86397567600934
0.3167125903991914
-24.55977212951883
2.844752684120227
-7.435933060023661
33.15395836351141
-28.56277798758005
-4.908508923506435
-17.14678660922608
1.085839413494393
2.72084133600946
13.34010585971846
17.03520677448735
-0.8919634900216172
-16.1432956051703
3.540283917515529
-17.67955174143663
20.90842442142126
-6.769156597514195
-14.87960092687192
17.20068099089754
16.58770879453765
-18.90878885856821
-41.74565522617605
-10.32872063544653
24.44462251523773
27.62975334637722
16.50013100499097
4.589201274293637
-20.72507479828622
-0.3642574810286122
-37.29060370262664
27.87185309485846
9.625357353378131
-0.2066067455473925
20.13975563523868
-4.18360949548752
-25.04204076419224
9.085894624439653
16.98227875238735
18.88370311446111
-19.36585086191679
-12.05964260546842
4.931799004699505
-11.36588643490026
18.49373003566769
4.306573820152963
-3.65732647814905
-1.737324849326182
1.088077507389192
-34.26154533503568
37.49371258521617
1.373347831951996
-4.605515082131615
28.97433217367352
-21.62740116108134
17.29180825997554
-24.63873927257091
-15.24677055201867
7.557846612810885
24.67120269156671
9.963931393429773
-16.27499516251505
13.52941131923201
-7.218347550147761
3.413330930625993
-27.07697572750619
16.82890655609312
6.834738240792896
4.76694342450468
-3.689266502300356
-14.04060323027845
12.96292630807723
-12.27297052204166
1.615401244312127
18.9526548788901
-2.687650481491478
-24.08485520609482
7.81985080869674
-6.932189056097676
-20.22964349679448
0.06560955957842644
27.09622299331205
7.329963200319646
20.6759581204768
-9.053266441911397
-14.32465133646622
1.901966334212636
12.42264727062572
17.58577413535407
-18.51674158509364
7.405719009960183
-6.474751560223756
-24.0311161838671
15.73855375417537
13.30021611505856
-5.007653685365481
-3.672971603570055
3.063596869667438
-19.25321581282352
19.86259054672198
0.6908807224055287
-12.16200511626181
6.598219208671376
4.8729051851834
-15.66772502331343
6.515138806381297
10.52729347567303
-1.374707258740845
-14.47530138959602
23.87151628270752
9.982868970045487
-10.09230599520222
28.05187978267828
-9.524965159562505
-8.434608627914326
-5.269724578428701
4.025618053965305
24.46087681388001
-23.21677028942229
-32.0941261100314
8.291513906871691
20.6600263425482
3.14258586061111
-24.34693579771167
0.1357954488575069
-10.16083992003768
34.37198026888071
27.55253005905771
14.94206920887832
-14.46603153653916
-28.0285677314024
-1.566953214347722
-7.685528125627153
21.56779772463812
-12.31531638465951
-9.506781795474799
31.50799290088567
-21.39007551340717
-0.611135592004616
11.73741365924876
15.50684245448343
0.05656895969176814
-27.30082507343252
1.662276672886223
-23.41425837581678
-1.573742576389565
23.32572427931939
16.16698090282116
-13.27672138862467
-18.79443261398638
-0.4442515114580026
14.26675693287556
-13.82258336158303
-22.15242124735481
11.00314275417178
11.14908538719035
12.12305556584905
-22.630115939787
-7.730195543472916
18.23725591740144
-16.71988842125116
13.86931855016236
2.850339734407137
-9.077550410997276
12.42957448936436
18.07703413998339
-21.42905821836153
-15.99212090972219
-2.810453178344057
17.50766092160187
0.7991643657989889
11.92221802830276
-24.3065908429972
11.5852084488933
-17.64536790105982
12.74029427381873
-11.08704728248844
-2.989712681172461
1.249126931874693
-18.42584630575974
20.16643205505012
5.783216041883479
11.84543281945192
12.99695292038896
-30.62560178172986
18.75045580858317
-2.131278417798045
-8.171478651042646
-8.447698739734562
7.499616600976055
-2.470601483366577
-21.39167513989635
16.36266002228666
8.91277927694312
-28.68169150567085
10.69136181772279
-4.794270244498086
-13.03929516666188
-2.720740344374569
20.55430575552193
-8.002148408845613
19.09202036184933
1.887345800171229
-12.97721775317744
3.019171021397286
13.85500709115006
2.047168503800209
3.933038325634829
-23.35640966571699
15.16021754030321
4.263153799776614
18.79317542386292
-15.08511325090327
1.556806587217742
-5.26486876017714
-14.46399610338495
1.145347450047596
-2.055283381337746
15.37393203472173
17.39874295779635
5.840582541829394
-19.06158786454151
-4.177737635087174
2.649092016828396
5.132509826599527
14.46514356693151
-22.2467454103548
20.66420414008695
0.1870588924685348
-25.46105111211984
4.609788079641514
29.35099517895856
-18.76344064845596
17.99430127530695
-28.58185580579708
4.608950815999335
11.40321791887771
1.777206376570073
-30.02278090094877
-3.235417038835688
20.45858228332578
12.79961565644518
-4.143632877737594
0.3546426956805016
19.24108993355226
-15.45209975149597
6.919140833997486
9.388188654863985
4.80511004661058
-21.11243953547423
12.14822016425448
-7.088516138639467
-18.07464074847448
13.01493672285294
-18.49391741389282
10.04204532217178
16.12765131579628
-7.675779224076506
-18.56865754747277
19.88286814660329
9.091381454582489
-10.40559205371144
-7.962716283942333
25.56542250296011
-0.3934320959822107
-17.20927412303122
-21.07764106595409
-3.372602197776182
22.78299988026357
1.667243383463236
-2.332975425108313
19.3114528235005
2.824065490095434
-22.39306344288061
-6.821510899011919
3.605313515018869
-26.92191334359849
26.25535359553981
-13.80874164152394
0.8952629449845101
-41.85698393534076
6.877310355855424
-18.67166720822219
34.57826195882438
-22.78390510645895
17.70910107037222
-41.64804911352642
-13.70070892166442
37.63965696481641
26.44218863585074
-3.630786908302664
-22.39911312417394
-0.4122886033760576
4.329198936358532
-1.433904184212256
27.70409775094551
-30.59939250309419
24.21472027822434
-26.40102695055197
-1.14220206955784
3.328508741884941
15.54728203622006
-12.50594642461347
-24.43018560818559
21.38884999654596
-5.595641692537393
-12.91531422142677
14.29777915017918
4.213176763784955
33.38189626273384
-16.98009495931298
-19.77611665799436
3.374315354600415
-11.47069803491906
1.623184828040864
12.46346727467251
-2.615954067785471
8.003952334179317
9.725081184635522
0.07185212507606781
-6.279032654216572
-9.834260402942494
30.85835930817877
-14.74506625102117
9.918101268909474
-20.30781171135787
9.020021688531424
1.369688753917488
-19.44641580484991
25.25362225779085
3.441339855871626
-9.248546308807944
14.29368302720979
20.46822850456767
0.8245500205654893
-35.58646155234177
-27.20635092450612
-8.56961561865706
-11.61580997901568
47.39177652215711
37.76212732992462
-11.31595731238133
2.566677014065786
-29.01284703161755
15.63014666326849
-36.03035269620472
-8.400215347870198
28.80042138080231
21.47880000552206
-12.3968913769634
5.985937567494577
-15.06784619605704
-20.33102693333241
0.1188674922480254
-3.001234927708108
23.21339436878859
-21.24692745186956
0.08072503256940569
7.469242602231386
13.69695981706609
-10.94748311030247
-20.10959533397616
18.7905042348466
12.26657420941912
14.02272754644011
0.2324600404241803
-14.25524134400161
-14.44925041120152
18.78484743327735
33.4265303078516
-18.05999258961259
26.02242613649038
19.37848554258971
-27.34091908958231
18.90249975057673
-0.2257643095228808
0.2773936878664185
-10.63599086112156
-9.695928967205761
2.447126287411923
-23.02854321937372
-6.624933992551318
-21.1561480970238
10.51886596743637
-0.3102009807202621
3.465918377553455
14.95862325433234
-17.23809804377632
36.98604205084301
-16.94838787630579
-15.08710286855475
-4.95055130601904
-4.206208882882097
10.89733324161669
-26.80071969271858
14.21586253356257
3.805549296191528
1.698494482208165
-19.71990631196948
1.289858520705365
8.787522411584039
10.57775451288359
-20.65513544514987
2.260039104507269
-3.670917685487182
0.5432783595504712
0.8676002214254281
6.40456861634777
13.00562086581085
-1.270584932908606
8.746055455609216
7.969188586981786
-0.3298918294062465
-3.648506059769052
-6.718001737384643
20.16731581678201
-9.800808019621529
-42.6855410680315
9.546122375078745
15.0794261032757
1.653452859696965
-19.68648530185654
0.9295740534487474
17.10345838869085
-10.83531668825214
20.94422280927258
2.360994958782045
-12.46990107979381
27.01021867686066
11.54504918780328
11.15973455706673
-49.71500242174278
11.33969517500911
5.469752449628393
-15.80938609512195
-1.000061529514967
-23.53150834053889
-5.929645519011191
1.333709931891675
28.12744392765189
1.217059211203257
0.5858246345026108
-25.3343921862504
-15.29442839698389
-5.593379390980938
-8.039834676208196
15.43138380706534
-15.93487218324141
2.156941235849349
16.23340060729107
2.759070814701231
0.8592013277827584
-19.85167274977307
38.53858823467306
-20.81238219769203
3.584098253513369
-21.31030429049517
20.43260598713975
-27.22362704140608
6.790971537142521
-9.101907923980624
29.68516384653561
-1.454166575938754
-19.12908934661708
-17.34803007379433
-5.428520929370293
14.93630144479528
7.84024955836672
6.842205788642735
-6.659371246349377
-2.535598387387436