/*--------------------------------*- C++ -*----------------------------------*\
| =========                 |                                                 |
| \\      /  F ield         | OpenFOAM: The Open Source CFD Toolbox           |
|  \\    /   O peration     | Version:  v1906                                 |
|   \\  /    A nd           | Web:      www.OpenFOAM.com                      |
|    \\/     M anipulation  |                                                 |
\*---------------------------------------------------------------------------*/
FoamFile
{
    version     2.0;
    format      ascii;
    class       volVectorField;
    location    "0.4";
    object      U;
}
// * * * * * * * * * * * * * * * * * * * * * * * * * * * * * * * * * * * * * //

dimensions      [0 1 -1 0 0 0 0];


internalField   nonuniform List<vector> 
19632
(
(5.00671744839604 0.012834103781346 0.005130722689505117)
(4.999963596773203 0.0001990482684156614 9.590096255770329e-05)
(5.000130455269828 8.421360585306126e-05 -1.105931930200528e-05)
(5.000016066929395 0.0001603719802549069 -0.0002809907654466354)
(5.000027784596371 0.0001504936360362083 1.936754392421919e-05)
(4.999855315124752 0.0001983363510747479 0.0006074566698780153)
(5.000094231088138 0.001401817044400717 -0.0003611287326420411)
(5.002734595096617 0.001823700253607447 0.002362431493739345)
(5.004403350159258 0.001469634185894452 0.003098809205262305)
(5.004588561042711 0.0005424232950765039 0.001903442285546801)
(4.999983886922167 0.004014923837419675 7.854550314274123e-05)
(4.999879679927044 0.0006068195542163958 0.00052954393698582)
(5.004402799108498 0.0007276562576888695 0.00259572068210324)
(4.999943832367177 -4.949762260692251e-05 -3.055143335798619e-05)
(4.999970966078442 0.0004013462531887901 -0.0001903887471017933)
(5.000150236114724 0.0005070388395219175 0.0002203555805916142)
(5.000017059182744 0.0003631549267004196 -0.0001187022066781343)
(5.000035325012042 0.00046160722022453 -0.0002999450350507751)
(5.000079542823114 9.326681313625081e-05 1.639623639945858e-05)
(5.000172373690329 0.001261731957642758 0.0004143136406491112)
(5.002650943323845 0.000638564409160038 0.001566615546881167)
(5.001243850853326 0.002306413719143508 0.003292054025040733)
(5.005722653592339 0.0008060616507748796 0.00252508848868437)
(5.000105855841057 0.0004029477935513263 -0.0001674114249563304)
(5.000405472113958 0.0002645950308100765 1.686408281526682e-05)
(5.00429291266555 0.002237016926656505 0.00393098562084645)
(5.003134633623504 0.002852594260433821 0.002146115633336415)
(4.99978446548295 0.0005672562810779346 -0.0001991634650257962)
(5.000138258164869 0.0003386215475787317 0.0003212859972431203)
(4.999992004329538 0.000176323591232628 -4.83753312823182e-05)
(5.000089133800531 -4.910797834216085e-05 1.834584004893148e-05)
(4.999822855602956 0.0004355707147372561 -0.0001354306890007206)
(4.999966840770265 0.0004847428526233362 -7.332949952781014e-06)
(4.999815108076295 0.0001769825525485705 -0.0001334716547888211)
(5.000056467540707 0.0001319486701686168 -1.199015853017619e-05)
(5.000268145448411 5.50650775991098e-05 0.0004907193315564711)
(5.000691157027961 0.0009680126305497521 0.0008613040140311725)
(4.999832388704397 0.002289553893772872 5.903831313026395e-05)
(5.002699025233302 0.001170901293869147 0.002763181565147511)
(4.999966129358058 0.00070642514296473 1.31228911121475e-05)
(4.999900368332084 0.0008902907495104257 -1.152118721737172e-05)
(5.004515469401082 0.002009747143238282 0.004652018668371014)
(5.000130502723398 0.001055571321792622 0.0005562506339171033)
(4.999810499791293 0.000545191742821754 0.000312893744523416)
(5.000026350172727 0.0001126338524777448 -2.035891625726372e-05)
(4.998918790146726 0.00282076516628878 -0.001032613401312268)
(5.00036249444658 0.0009452476552878402 0.0007144176066475694)
(4.995139683101597 0.0004535262669004129 0.0001951673824219992)
(4.999919305672489 0.001945115890959336 -0.0002635088065078668)
(5.000164165814205 -6.371371699334028e-06 8.734377621085207e-06)
(4.99782498614707 0.0005478868035391425 -0.0003253998741987505)
(5.000041322002103 0.0001208676675661778 0.0005382489831286485)
(5.000083236406611 0.0006446903087297266 0.00020749610297907)
(5.00007075456938 0.004491552784392741 -0.001381271023656829)
(5.000063279979541 0.0004515021784254454 0.0002509400348121874)
(5.001513376261592 0.0004293523077179051 0.0008044244910643366)
(5.003259993138125 0.0002332263403056359 0.001118568319026109)
(5.000551395821105 -8.393356681857439e-05 -4.947924793241897e-06)
(4.999746927038168 -0.0003898896599225302 -0.001118411114265516)
(4.99997501085857 0.0003193641413865823 -3.051260479511169e-05)
(4.999984621306692 0.0001771587027957787 2.869536347845628e-05)
(5.000183792212892 3.692782525291849e-05 7.543524951032552e-06)
(5.000104945877239 0.0001312171281651185 -3.828851560270054e-05)
(4.999939667802087 0.0003392253476266509 0.0006641841490602145)
(5.00035078575297 0.0001401257018188557 0.0006936684650470372)
(4.999998028803649 6.974152566514619e-05 1.426193841673411e-05)
(4.999812482555578 0.000922244060755506 -8.564228585682515e-05)
(4.999922455112709 0.000101862294078452 0.0001635691232134836)
(5.000260810424932 0.0001578059318932194 0.0004454608765558723)
(5.000308860466715 -5.184647968470562e-05 0.001173894033076102)
(5.000042333658294 0.0001685642693313536 8.973840694109839e-05)
(4.995839556659493 0.001334982385208913 -0.0001696428799083718)
(4.991543126683783 -4.928535095684081e-05 0.0003034777496448536)
(5.003461078244033 0.001189508506124166 0.002256501604154617)
(5.000469639092637 6.460812348993268e-05 -6.198821360604482e-05)
(5.000966483585006 0.0002082745012144632 -0.000914913100025082)
(5.000043841074654 0.0002093665869121869 -0.002312314260952282)
(4.999136256123198 0.001054499521863186 0.01528124595479578)
(4.999892675191607 0.0008983266820735227 2.55063325475685e-05)
(4.999681519637869 0.0008304145222905882 -7.041826962137757e-05)
(4.99792852570556 0.003339350573902687 -0.002725106505173428)
(4.999919919945593 0.0005491417482500081 0.0002496987739842751)
(5.000660702274797 0.001276552178130136 0.002383819952120747)
(4.999727935073412 0.0004778661182083239 -0.0002364197603081217)
(4.999582574940503 0.001249371076283628 -4.243256964350651e-05)
(4.999484523516297 0.001107540016744438 -1.797363976865321e-05)
(4.999994116491722 6.647152025766698e-05 0.0001334820175735717)
(5.00058956199329 -6.664551984128681e-05 -0.005002291784238324)
(4.996451227833949 0.004332351878090684 -0.001440964342139974)
(4.999926971529747 0.0005070026724049397 -0.0002549283995330043)
(5.004696725805795 0.0007317207641091756 0.005823360593367191)
(5.004588345168746 0.001699079033574995 0.005941485303470526)
(5.004997283222269 0.001709451110068844 0.002880755211324736)
(5.000066484741529 0.0003247630243346345 -0.0001068241778763814)
(5.002834030864922 0.0005196913097560955 0.00225275940785786)
(5.003183868921854 0.002343527629667794 0.002021796909614392)
(4.999204473833428 0.0001317821381358938 -1.285836429508446e-05)
(5.000019391331944 0.002377185939894279 -0.0001557474151773593)
(5.000779388223933 0.00290635277403529 -0.005201879448041147)
(5.000134780303439 0.0002052773088922909 0.001288174485677237)
(5.000030130312338 8.512756596760015e-05 -4.829212179772864e-05)
(5.000101838363816 0.0006258600333002286 0.0003950043143171423)
(4.999990747853468 0.0002878283974949746 -6.526205876530659e-05)
(4.9999327311515 0.0003191140861400594 -0.0001085309050112789)
(4.99987970113465 0.002933469987227215 0.0006287535921889964)
(5.000018111275109 0.0006178432358962883 0.0001388333699319026)
(5.000050259006374 0.0001654184538844489 3.924007927571666e-05)
(5.003841158303418 0.00194218005945398 0.004675330887238762)
(5.000215239422306 0.0008676535014591593 0.0005904328851700519)
(5.000005531497099 0.003496807004671697 0.0001480877689017122)
(4.997304476892577 0.0006290485634584742 0.0001621612565982773)
(5.003813692268537 0.0001223587473323629 0.0005938090788372234)
(4.999682728977425 0.0007503247907665843 -0.0001615824796577177)
(5.003210980087239 8.884657653077738e-06 0.001542697487450919)
(5.004350954547735 -0.001133839481330703 -1.854127169098042e-05)
(5.003155106234426 0.004533971556112247 0.007305481000561229)
(5.003075057506591 0.000339961964676766 0.001170091717705558)
(5.003574442591407 0.000362770966417633 0.001098541180085251)
(5.000128805130811 0.001394065691779385 0.0004588932074992349)
(5.003221146627165 0.002825737129188021 0.003709866630924304)
(4.995651709197511 7.576221377670361e-06 0.0003331052473923718)
(5.003634518241356 0.002321988070319551 0.004396373049276257)
(5.000035888594271 0.0001344769116431001 -2.112113883338955e-05)
(5.003754356836668 -0.0003791903992554872 -7.561067252783506e-05)
(5.003848333360173 -0.0002783071269208412 -0.0006049215582103257)
(4.999884203745825 0.0005486189023425624 -0.000134620716274213)
(5.002529327131637 0.002700281833527734 0.003787019463239685)
(5.000240428173086 0.000139213452829148 2.317221571067756e-05)
(5.000100065034919 3.629522340944774e-05 -8.835708870894416e-05)
(4.998009653932917 0.003784756329873981 -0.003202955031679278)
(4.997269727769083 0.006023553276703434 -0.003088596561834213)
(5.000136755161725 0.0001196136427048846 -2.310184921219399e-06)
(4.999885736540412 0.0005923949857777993 -0.0001474594258193968)
(5.00007174650036 -4.711985864963864e-05 -5.169744629872606e-05)
(5.001269202388862 0.0001077566437916247 -0.0003954224860273772)
(5.000269355872935 0.0002207591467015566 -4.551606052282768e-05)
(5.003926533521165 -0.0007927686835021448 -0.0001127261993187181)
(5.000966480347938 0.000279244563181503 -0.000476317413784232)
(5.000188691945925 -5.492418592280715e-06 -2.438139850197275e-05)
(5.000473576703893 0.000565896426166546 -0.0005138292983347958)
(5.000015173866908 0.0002556159894894094 -6.609582897438044e-05)
(5.003028688161169 -0.0006077183174040853 0.002272481504206411)
(5.000102069668523 -1.614781742608036e-05 1.210575477441e-05)
(5.018530510454219 -0.001061398424613225 -0.01611808547314426)
(5.000093845122307 7.339711997960346e-05 2.430785665198796e-05)
(5.003886344819279 0.003716719351969404 0.004973496669439057)
(5.00012228935231 9.422326916329837e-06 -7.677777074443555e-05)
(5.000731006002638 0.0005027435238641852 0.000663477770302982)
(4.999828714882779 0.0004220438625612607 -5.91971367668495e-05)
(5.000277255965504 0.0008392629314389081 -0.0004212995572119283)
(4.999999870448632 0.002639324832948106 -0.000103643760198873)
(5.000857737589977 0.0006024799268579043 0.0008050275970948855)
(5.000007292173576 0.0004939916679899881 0.0002130113070485382)
(5.000100955920773 3.558245757240455e-05 -1.453621457752986e-05)
(5.009205435133985 0.01885743603101508 0.01308147370216116)
(5.003280727858773 0.0006746434373589782 0.001336755624738815)
(4.998186843029704 0.002332999734543061 -5.281149236212634e-05)
(5.002515088223326 0.0007662134234654528 0.001524633145267426)
(5.002173645475672 0.004141765733590266 0.007186577262900194)
(5.000105461071116 0.0006069761442150076 -1.721033418198281e-05)
(5.00393202749705 -0.000429892838144472 0.0005801842674909979)
(4.998153788806516 0.0002151129294155927 -7.044944490193448e-05)
(4.999691640928008 0.0009767729526795057 0.0006805365228140434)
(4.997877912863729 0.0003287667264758209 1.630326725710947e-05)
(5.000034046050944 -0.0005936271399390786 -0.0002189955853639203)
(5.000315934617641 0.009468177558800426 -0.008599407790727303)
(5.000098772116088 0.0009786031596545489 -4.467396964908694e-05)
(4.997869075780286 0.000369876237338901 0.0001232365150011576)
(5.000122927875209 -1.725850752362838e-05 3.676825248747021e-05)
(4.995979510775835 8.006988910667997e-05 0.000110372152099721)
(5.000017088376663 0.0007487998433757776 -0.007142629991380849)
(4.997465093004803 0.0004291977616479516 6.678191997445082e-06)
(5.000467043632671 0.0004372243887324347 -0.0005708067175003091)
(4.999824863483813 0.00141405907552763 6.646690010310578e-07)
(5.001011785470368 0.001102408609827075 -0.0004630227043792885)
(5.000624893223654 0.006675957921025664 -0.00554159318692693)
(5.000203171383652 0.004060227647459851 -0.006352673496965862)
(5.000023651237271 9.973278496239385e-05 -7.191406259345797e-05)
(4.997425754702324 0.0001707957081579663 -0.002613197640849572)
(5.00055243375318 0.0007248550209675542 -0.0005035658784872571)
(5.000115135844404 0.0001018970448176994 2.021699353306829e-05)
(5.000174404950095 -8.364249124261264e-07 -1.093850704019863e-05)
(5.000086285943412 0.0001167732921038982 -1.156118143030244e-05)
(4.997615872000955 0.006278380594705653 -0.002092719531379011)
(5.000561588592128 0.0006189857389040617 7.503244910341994e-05)
(5.000112953592827 -3.100126363696749e-06 1.087772742821393e-05)
(5.000138674512006 -3.142030183097148e-05 4.466926847361313e-06)
(5.000140537289087 -1.123458636364482e-06 -1.60906469079051e-05)
(4.997673773614306 0.004470341599365601 -0.001908493893960674)
(5.00010234897824 -1.054181175954457e-05 -1.420221583683555e-05)
(4.992688876482825 0.0008945557907383565 0.0003508979693397488)
(4.998918246694101 0.0003531279226769967 2.672258221059864e-05)
(5.000147462498719 9.081844558066115e-05 4.691913098133607e-05)
(5.000149612804415 0.0001040771037086288 -2.498112119947959e-05)
(5.000210174949555 0.0003688649493168112 -0.000287248974662023)
(5.000185880463232 0.000329392231186405 -0.0002076782749370196)
(5.000169498961299 2.216651217772383e-05 -8.565212942455517e-06)
(5.000088225244888 0.0001507026655204241 6.403258964975678e-05)
(5.000092589194931 0.0003398675808381982 -2.387583351806933e-05)
(5.000254855658752 4.947324367598167e-05 -7.514437098863144e-05)
(5.000033655957584 -5.694664774051814e-06 7.307092251624023e-05)
(5.000187305638955 0.0002973695639026278 -0.0001753080753393011)
(5.000185691254504 -0.0001249786540306963 2.634391347075723e-05)
(4.998830156550621 0.0001755798588498919 -9.788882815401487e-05)
(5.00009990364414 -0.0004214395027312539 5.561779238841878e-05)
(4.999957370404607 0.0001311459450579403 5.08332880286463e-05)
(4.99379468576472 0.003657067278805891 0.02176644217791854)
(4.998616294987095 -9.201327467429806e-05 -0.0001044180236039858)
(5.00086954334657 0.0006242034324627826 0.0001602019182281426)
(5.000033328509895 0.0008316896375906677 -0.0001743281986258651)
(5.00019631821484 0.0006336308112072637 0.0003299431635886028)
(5.00127978275358 -0.000179181177543522 0.0008828527239480107)
(5.00013549767329 6.330527275435432e-05 -1.994121298147651e-05)
(4.998890103511423 2.76411326627983e-05 -3.901611177959456e-05)
(5.000369323407442 0.000753778535156525 -0.0001896617879727221)
(4.999949844865347 0.0001132241151128139 -1.580766612975305e-05)
(4.999874675487741 0.0005242938571983099 -0.0001700479231427553)
(5.000389459121869 0.000266654235753058 -0.0001296055819302915)
(4.998408739241994 0.001876896829095416 -4.183130290723877e-05)
(4.999642212277243 0.0008009083408577093 -0.005259678613674604)
(5.000008874806091 0.0001049956689876879 2.810453805207436e-05)
(5.000228847269629 -4.323480156450065e-05 -0.0002596012643766648)
(5.000412602849234 0.0003905636222854301 -0.0001507403852827964)
(5.00005846976101 -2.829432593592295e-05 -6.38847521231822e-05)
(5.000065521296288 0.0002935986708679219 -0.0002437404207786053)
(5.00011779453061 0.0001062470870174782 -6.150809628987985e-06)
(5.003560820831439 0.0001131311144080514 4.845582807535131e-05)
(5.000030877146385 0.00012581789249092 6.652810040662282e-05)
(5.00604926335781 9.155331598257672e-05 0.001325279552830287)
(5.000231192304835 0.0009229259381553993 -0.0005170026458513775)
(4.999983760267526 0.0005274986974178485 0.0001716648612402795)
(5.000756673889119 -1.833214541921891e-05 -1.768850833733777e-05)
(5.000145523892912 -9.34628394361341e-06 -7.146535266496971e-06)
(5.000179458748143 0.0002587388433859697 0.0001123748003781589)
(5.000057521669107 7.269146516851826e-07 5.164751809048301e-05)
(5.000113355862624 1.15120869985219e-05 7.983579520557116e-05)
(5.000176267713825 9.848587794619898e-05 0.0006790406120607052)
(4.999879200870671 0.0004134740928379885 0.001593346418757243)
(5.000019862764498 0.0001346213449540615 0.0001041508441434869)
(5.000095422221451 -9.502083701177895e-05 -7.505014962704254e-05)
(5.000855368177522 7.81183180740166e-05 -8.218917305444917e-06)
(5.000561107246409 0.0002163040789459909 -9.401276517132681e-05)
(4.985506771058369 0.0003928738711693677 0.01584795993583361)
(5.000164121947001 0.0004994738042183078 -0.0002201706647348017)
(5.000129096590848 0.0006118600379231945 -6.483095267340799e-05)
(5.000153375165145 1.245271161678818e-05 -1.971888884659251e-06)
(5.000235581104101 0.0005661606126759549 -0.0001845017778023387)
(5.00018327621409 0.0003818667562984917 -0.0002340011336462286)
(4.999885420107529 0.0001289954318216082 0.002567971435082392)
(5.000928065501609 0.0004478101924894924 0.0003708424636514887)
(5.000138061025334 -4.606098983568869e-05 8.21910898405407e-05)
(5.000346455222356 -0.0004042277308861208 0.00438221904879958)
(5.000130306802204 0.0003701390465752212 -0.0001180482941322633)
(5.000175688461748 0.0004115920500490473 -0.0003412771103633665)
(5.000088479279763 -0.0003368485393001898 -0.0003202688157714438)
(5.000224924372184 0.0001945783182735227 -0.0002709301620350329)
(5.000148285425559 0.0003736805837353341 -8.246067891188918e-05)
(4.999221406205668 -5.836802950810658e-05 3.791578590068909e-05)
(4.999811221431302 0.001004803385674215 0.003840077026561347)
(5.000268492596942 0.0005017211653132018 -0.0003410964549172443)
(5.000407327802717 0.0005557779060622537 -0.0004360699989454955)
(5.002526793256281 0.0004609349180440561 0.00402448885289561)
(5.000347600100848 7.619003876093071e-06 -2.054918712094064e-06)
(5.004423673095051 0.003361549179551841 0.004314670598811927)
(4.999981927400286 0.0002279095233440781 0.000171449514973503)
(4.999846747313829 0.0003211565514626138 0.000454184786692164)
(5.000258823512828 0.0001812788459993095 -0.000194152897821285)
(5.004936173838511 0.002129984175277062 0.002039983026947776)
(5.000686626639933 3.406684344847768e-05 -0.0004124932872688358)
(5.005429369910857 0.0006503122886308695 0.001212362598896263)
(5.000351619449679 0.0002732940889824602 0.0001786957741338141)
(4.997654337735783 0.004000953332770696 -0.003452784877909054)
(5.00015991842555 9.202772701560237e-06 -1.315981212287439e-05)
(5.006788163446352 0.00275431995553083 0.001543971220686529)
(5.001078307914069 0.0001742098595030051 0.0002712255629282103)
(5.00378446804382 0.00100536544063098 0.001967208077016347)
(5.000336367214783 8.798720594544979e-05 -0.0001073062009394389)
(5.00038233247187 -4.640185660852525e-05 -2.397476877619806e-05)
(5.00330317232496 0.001073304175026331 0.002006783525566978)
(5.002393457664427 0.001120572914112138 0.002849020382853834)
(5.002181945775615 0.001942902020709055 0.002426983317205365)
(4.997398768999856 0.0002589385601390903 0.0002126518950264696)
(5.000139017508012 -3.424105575021566e-05 -1.250482188423421e-05)
(5.000193795521696 0.0002088754706509461 2.921865256350654e-05)
(5.000115714023779 3.465833358067616e-05 1.022049800942509e-05)
(5.000114752447628 -0.0001999925098295123 -6.564645120542522e-05)
(5.000001935826526 0.001133367927824673 -0.000381250413145499)
(5.00038811470544 7.266527606145356e-05 -2.672296791342367e-05)
(5.000104831991091 0.001743408622344285 0.001717108668893377)
(5.000108267641658 7.006413376872065e-05 5.841545761831224e-05)
(5.000121194919546 -7.512821815310768e-05 -5.307457540626943e-05)
(4.999965936403868 6.922700407377805e-05 5.901600488521388e-05)
(5.001429869450137 0.0007424664711733985 0.002047859313136477)
(5.000092505085663 0.0001045937880183898 4.960403413448751e-05)
(5.000092389708374 0.0002398282591286809 -0.0001806377163986573)
(4.999954070049382 0.0002918333199423001 0.0004345766929957469)
(4.999948254403168 7.400107616134134e-05 -2.904201585887781e-05)
(4.996260073347989 0.00016431321759952 -5.821294647130927e-05)
(5.00077614904782 0.0001484941659755139 7.730098790956325e-05)
(5.000092181341238 8.103334998815549e-05 9.30831803716849e-06)
(5.000079840476645 0.0003069710493258153 0.003901247390260735)
(5.000999093503204 0.0001527417289189172 0.0005319900681398906)
(4.999981709718388 0.000102302817329757 4.624833381902989e-05)
(5.000152776856243 6.877982952016052e-06 -2.984106408021601e-05)
(5.000525201005159 0.0006853801523991474 -0.0003733993594177137)
(5.000499163405002 0.0007228381049979989 0.0007092139345276821)
(5.000114291078432 -5.910475795778738e-05 3.641549603436827e-05)
(5.001809634638082 -0.0002715803695773013 0.0001403942366848278)
(4.999960867817387 0.0006089316962657998 0.000549768500282148)
(5.000135701174815 0.0004342649106287869 0.0002085119574347714)
(5.002670798377538 0.001064599409392369 0.00121345674186436)
(5.00152067041987 0.002890245817002919 0.004215854334278052)
(5.00032251117946 0.0005741419019619863 -0.0003133049032159745)
(5.00331064501113 0.002107614344282396 0.004529296968197814)
(5.000062772075658 0.001180446432746553 -0.000156127440511692)
(5.000223743918189 7.964171219346034e-06 5.444890679089277e-05)
(5.000593972813641 0.0005168038316133657 -0.0001776184562888527)
(5.00445366494791 1.458933285321061e-05 -0.000343635972655665)
(5.00044632115872 0.00168423960533364 -0.0002720674336248116)
(5.004673543643765 0.00104442710797547 0.001612111943837528)
(5.012257706366585 0.0282979802446755 0.004782700440516444)
(5.003760668684577 0.0008749628725058238 0.001806802042478483)
(5.003509490289831 0.001432040401164015 0.00135721686844259)
(5.00293062931862 0.000634443230134038 0.0009364568974111081)
(5.000482635922882 0.001113112798881752 -0.001017107851610918)
(5.000268009648364 0.001227721905119756 -0.0006282679108629622)
(5.000110494694997 0.0009869709901901768 -0.0007345703173031966)
(5.000234475955096 0.0005493786242000402 0.0001196658542044237)
(5.000187031089411 2.334555586201352e-05 -0.001423337236673213)
(5.000243792906728 0.0004251043701102586 -9.758843348850893e-06)
(5.000104833874672 0.0002247461294403521 1.713962747647261e-05)
(5.000251849020927 3.618098572446871e-05 3.450470247378028e-05)
(4.999778213878376 0.001375098263224431 0.0005275675228643878)
(4.999540384066047 0.001126060946435899 -0.001150473718636409)
(5.000051994300002 0.000213769471140503 8.996302453930199e-05)
(4.999903412483689 0.001042554792985225 0.0007568685333999664)
(5.000009049292002 0.0002088111111425273 -9.561208178065938e-05)
(5.005511095436154 0.009121905381564833 0.01309383604265253)
(5.000053748967581 0.0001601371511369402 -5.110684305301183e-05)
(4.999860684124344 0.0002983855067485456 -0.0002672420640283668)
(4.999800226985056 0.001471127724667787 0.0008550269346379205)
(5.000109589428073 6.325008532768354e-05 -0.0001526536835054317)
(5.000099620363843 0.0007255056304555136 -9.781315997211049e-07)
(4.997537219218032 0.0006789717141281881 -0.0001768355216174399)
(4.99960450919938 0.001603768318103862 0.0009917153440900867)
(4.99607428849286 0.0005415489086745865 0.001740031172206155)
(5.000136071409772 2.320924009677894e-05 1.719303488215318e-05)
(4.999917619533786 0.0006332638794238742 0.0009121011298202814)
(5.000066493462101 0.000661159039563191 9.626307403415296e-05)
(5.000218374621113 6.034247064858122e-05 -0.0001547388812003658)
(5.000453290815702 0.0001969689652282398 -0.0001140227505977766)
(5.000676948620947 7.344187472907205e-06 0.001887983460010715)
(5.000024212743778 6.410330990723377e-05 -3.092581543256211e-05)
(4.999973697813989 0.0001849551329880375 -6.191476506106592e-05)
(5.000357536299536 0.0009295726934908971 -0.0003930137753118467)
(4.999919720689034 0.0001408482227218599 4.312795555407037e-05)
(5.000098137712842 6.646572450666336e-05 -3.043203567169984e-05)
(4.999901692491398 0.000301707426871525 -0.0001440264934310758)
(4.999824634567129 0.001415445524177601 0.0001360214654220423)
(5.000045238655329 0.0003202273098537143 -6.383013726386453e-05)
(5.00042164355694 0.0002751104292061601 -0.0001832763705418593)
(4.999988509973338 0.0001147939397798597 1.34021236832468e-05)
(4.999838379875209 0.0005141962655781112 -0.0001625612407158606)
(4.999977736531187 0.0003196751750126521 -0.0003987005320063042)
(4.999874544831473 0.0002685363786432534 -0.0004114142492731048)
(5.000020950936873 0.001018195345207147 -4.303171670094769e-05)
(4.999981432005213 0.00222405365325057 -0.0001003415319048486)
(4.999933950378308 0.0004328190562622202 0.000156436290475126)
(4.999858538509531 7.471893084612917e-05 0.002505699606645235)
(5.000156965340088 0.0004368851652447358 -0.0001595898359919023)
(5.000232901025413 0.0002870681057559365 -0.0002525154452351511)
(5.000029970405998 5.996073770395616e-05 1.264824643767376e-05)
(5.000257432990547 0.0002636819840277158 -0.0002198188925271126)
(5.000183709406834 0.0002467025237575172 -0.0001192439082398103)
(5.000046681321569 -7.9057344904077e-05 -3.522627771451285e-05)
(5.000135351688902 0.0005017954301281566 -0.000215474007309487)
(4.999927639033719 9.413326342844655e-05 -1.257474181317828e-05)
(5.000079251484817 0.0003786880310491916 -0.0001682038994400697)
(5.000159435892084 0.0003424967002112683 -9.247189240771728e-05)
(5.000050584631995 0.0001531897373572862 -7.163219684223254e-05)
(4.997534079698008 3.333739562112925e-05 -5.182854203330703e-05)
(4.99997558497512 0.0001607965426568271 1.667830012337475e-05)
(5.000337803534584 0.0006970712556388917 -0.0005422373720098486)
(5.00017740000069 0.0007035977921736604 -0.0003416956590820321)
(5.000156459197666 -8.390765663425547e-06 -3.137435934057059e-05)
(5.00080014298497 0.00125608055386831 -0.0003875018755428458)
(5.000860498733727 0.0009247424978888225 -0.0005979215879699908)
(5.000745250152931 0.002897211573954989 0.0006883047351941176)
(4.991488512549823 0.0006211736619279863 0.0002564751397003706)
(5.000660251002933 0.0004886529957259949 0.0005234716477093486)
(4.999900415692724 0.0001698403812462238 -5.536053898519234e-05)
(5.000525517246988 0.001155041203131528 -0.0009316401585022654)
(5.000461750616201 0.0009902709724467123 0.000250471738141343)
(5.000082730632466 0.0002529488459757277 -0.0001571780522459935)
(5.000270839918675 0.0007191461689022324 -0.0003717910610353866)
(5.000996682149086 0.0002716320703899675 -0.000382717684807866)
(5.000150258974295 0.0003234484892731967 -0.001112581491671572)
(4.993642732608266 0.0005284130064788159 0.0001699935760450259)
(5.000123267652703 0.0009903744368836265 -0.000498740048205619)
(5.00020277151861 0.001230667424614456 -0.0005046938155270728)
(5.00022177732475 0.0005491832074308956 -0.0003953296454007077)
(4.999984805988045 9.315240778560742e-05 5.327074303637632e-05)
(5.000014728290624 0.0001767687415300105 -4.439233045886587e-05)
(5.000034386831713 3.962206959596678e-05 4.126107483603011e-05)
(5.000014187552572 0.0003332305380894732 -0.0002926007122137729)
(5.000060750107753 9.550315883184733e-05 -8.398769729903193e-05)
(5.000883859652572 0.00134488821957799 4.918607462553674e-05)
(4.999991940129466 0.0001679865646431507 8.810281133495566e-06)
(5.00038657530916 0.001218436540508825 -0.0004222996412840142)
(5.000191530859765 0.001001478643910664 0.0005004017034103052)
(4.997956911817594 8.464710737548812e-05 -0.000180764536231294)
(4.999961877070034 0.0002185158940768162 -8.914477034860964e-06)
(5.000048532913734 3.914697314468491e-05 2.469733111997087e-05)
(5.00028114912481 0.0004010333549228646 6.632630221658948e-05)
(4.999992151888378 0.0001584991316763894 -5.939576416554715e-05)
(5.000216199200429 0.000284880282096684 6.558652867634895e-05)
(5.000247480175709 0.000234222355526122 9.757967153397657e-06)
(5.000053338387459 0.0001870015842441979 -4.096323134938747e-05)
(5.000029873053906 0.0004110318283553249 0.0005424382120833755)
(4.999892385419306 0.0004917080560817621 0.00118088552408704)
(4.999998726985823 0.0004361382958115275 -8.864483403381292e-05)
(5.000216699220029 0.0002389274880757278 3.054687168311309e-05)
(5.00004709228336 0.001098579030817443 1.157562033508723e-05)
(5.000351395429891 0.0002296514819027587 -0.0001065472306695503)
(5.001829607637534 8.080625220126311e-05 -2.556748761752524e-05)
(5.00010094501569 6.40490061068011e-05 3.603066499924519e-05)
(5.000216162853355 0.000532676398048224 -0.009335338004493019)
(5.000200394056075 0.0003211752535055249 6.680968457750294e-05)
(5.000238270744828 0.0001789406680328998 8.036524955978307e-05)
(4.999772980208107 0.0004937812127066418 0.0001001063032097589)
(5.001036219665696 0.00188846414046921 0.0006295692936874306)
(5.000280409395701 0.0001977169499208698 3.145049114860049e-05)
(4.999770335410858 0.0005093512285472197 -0.0001191429002038814)
(5.000110919063184 0.001382570378862808 0.0003956342119704709)
(5.006958490318538 0.009076513976362287 0.003018702566452107)
(4.997309856312437 0.0001770937439034464 0.0001895252803932097)
(5.000913078073659 0.0002527539735071169 0.0003345318605521039)
(4.999737599102068 0.0007186832060382968 -0.0001445756207170226)
(5.001908672246479 -0.0001437579434918484 -0.0001936313368553248)
(5.000268514868008 0.000328755516722182 5.722917360868447e-06)
(5.000191735117062 3.123268453515523e-05 -0.0001626959594049348)
(5.000143733082008 -4.296812492059328e-05 -6.234332140732913e-05)
(5.000124143360784 0.0001610707902269842 -4.165037131107251e-05)
(5.000173912058979 0.0002367993206029141 2.77494539684677e-05)
(5.000210804546702 0.0003203893770417764 1.30141321491571e-06)
(5.001748598757687 0.0005373726482644849 -0.0001738712424108544)
(5.000316280793908 0.0003398303665454894 -4.506028046644489e-05)
(5.000442083366764 0.0001903425943435288 0.0002959706245945903)
(4.999996286185709 0.0001289992034595435 4.135776256243108e-05)
(5.000151789086677 0.001000862958627038 1.423667016228475e-05)
(5.000057160565087 0.0001238935929047205 -2.58709199423636e-05)
(5.000091052781746 0.0002106977830397635 9.355305315483334e-05)
(5.000150066581395 -5.904674402954659e-05 -1.645620441724013e-05)
(5.000190810105608 0.0001389210533406734 0.0001145802129319703)
(5.000302894254578 0.0002649920034359101 -1.198465934940677e-05)
(4.999948327005455 0.001989189813439833 1.575291284272239e-05)