/*--------------------------------*- C++ -*----------------------------------*\
| =========                 |                                                 |
| \\      /  F ield         | OpenFOAM: The Open Source CFD Toolbox           |
|  \\    /   O peration     | Version:  v1906                                 |
|   \\  /    A nd           | Web:      www.OpenFOAM.com                      |
|    \\/     M anipulation  |                                                 |
\*---------------------------------------------------------------------------*/
FoamFile
{
    version     2.0;
    format      ascii;
    class       volVectorField;
    location    "0.3";
    object      U;
}
// * * * * * * * * * * * * * * * * * * * * * * * * * * * * * * * * * * * * * //

dimensions      [0 1 -1 0 0 0 0];


internalField   nonuniform List<vector> 
19631
(
(5.025217531882519 0.01053897981405241 0.02670642933781139)
(4.980104378036341 0.03023411978006791 -0.006018433033306831)
(4.996396659141956 0.009793124180195911 0.0170875244273549)
(4.751443960606756 0.1834209921953934 0.0587163311508457)
(4.983410645193374 -0.008743859775485181 -0.01376046949074209)
(5.047313066470975 -0.03208332131738102 0.01375685685877846)
(4.993070832241459 0.004273858407927716 0.001610564740154678)
(3.483505641588173 -0.1096062047544284 0.04132801698547839)
(4.705745025461259 0.1039102222769549 -0.09718616707830624)
(5.005082178842035 0.000117530088448685 0.002688289568220321)
(4.959425824691848 0.008597641867870976 -0.01407435659811524)
(5.04208966449352 0.0001547378643682412 -0.0450763499449424)
(4.641157388691253 -0.01118476968552193 -0.1427264584297753)
(5.036912530933932 -0.03036463576686611 0.008670400326576679)
(5.000325213795496 0.0002591552605702079 0.0001378434045184796)
(4.943118682649047 0.03745737941487862 0.05704450861775524)
(5.04332771478786 -0.03780733776318892 0.001842489212590956)
(4.484176213762353 -0.6303956145875267 -0.5317962775814944)
(4.699771040445007 0.04151338354515167 0.06422761328351946)
(5.082675610525038 -0.09785281137167211 0.04888856944232098)
(5.022780488122956 0.04115452373393447 0.02867610406486224)
(5.043201011450694 -0.01874490230338768 0.01397453059967794)
(4.503020181595235 0.1114346412284559 0.3693099292024821)
(5.002648941994433 0.009312794913328254 -0.0007004471094832021)
(5.050303697678747 -0.03062602302175647 0.004793534151476374)
(4.989997433462515 0.00581385406655631 -0.0004374189305026971)
(5.051467545051657 -0.04578899967924443 -0.01493075595910745)
(4.537238119470811 -0.03647755447407338 -0.3430073598139644)
(5.043559933775717 0.1058369858026386 0.1449040556581697)
(5.001202283327626 -0.00171571705011901 -0.0001136145044067406)
(5.041643036336714 -0.0227166596111919 0.0157415242631158)
(5.041541170514794 -0.02508667153865904 -0.0024185164069615)
(5.016712197890112 -0.06272868192065682 -0.01844643498379973)
(5.006088091442875 0.01839113149629023 0.01821178270488258)
(4.703374979818801 -0.01645814176722648 -0.1368672907681226)
(4.453208495501007 0.2248748179461403 -0.539336486530452)
(4.995304187202864 0.001346818444093107 0.001336077893804993)
(4.976822945595947 0.009883746265957753 -0.01171757935370762)
(5.050089104772905 -0.05103849660912784 -0.01797201075566453)
(4.967124124221466 -0.002777008038332921 0.01091895191054645)
(5.303707258854245 -0.1031569035283982 0.07062884325475977)
(5.032511397477283 0.01545989143147286 0.04824448700646976)
(4.999089237959692 0.001409436713044066 0.0003293009060412809)
(5.00254235550382 0.02868544505924605 0.03988213836568909)
(5.058779333253811 -0.06867318112054561 0.1160842147913114)
(4.768433635961248 0.1134962322405741 0.0888156808636924)
(4.999758095974461 0.001011297599573222 0.001553158028902318)
(5.016541743095043 0.001275631429018325 0.04108791917301634)
(5.023088946766642 -0.001988533691224004 0.02813035133014074)
(5.039862642025828 -0.03048922096671931 0.001722771318048024)
(4.954417873313453 -0.003655964449579695 -0.0001931035254070865)
(5.009194720117751 0.00347591572084452 0.009140221433904435)
(5.041840218531638 -0.0323011691972953 0.005295731137526958)
(4.960853672539455 0.02444235200224603 -0.05140373961461184)
(4.991008396053789 -0.04781183063447775 0.05040964872075477)
(5.025040226745046 0.01424015455082196 0.06112830647770903)
(5.040444320337581 -0.03401182305493705 -0.003124597024901705)
(5.038927709527842 -0.0339534154489605 -0.002538548640173772)
(4.02819938642586 -0.1369540041947964 0.2973029694723902)
(5.002730802653728 0.001042569452807367 0.001377408350540774)
(5.004946949587641 -1.737189732272317e-05 0.002275654616564197)
(3.803145965673991 -0.06600319537459561 -0.09461924316814514)
(4.343998114443139 -0.25291452394805 -0.2481672714203803)
(5.004752589583391 0.02538040743977258 -0.007290567656164136)
(5.040749764547942 -0.0009078353279585783 -0.01286909625618673)
(4.683054323609203 -0.08973669204608005 -0.02127956627397956)
(5.037302542094045 -0.03435987294571634 0.01972238468843383)
(5.043843939507137 -0.02032269554862412 0.008956496410354531)
(4.94335759584708 0.04741233930055883 0.009644963304277002)
(5.006287490502117 0.0005685248100058664 0.003623252332671224)
(5.005007509411054 0.003359627135998158 0.003308024609537284)
(4.241760267361435 0.8530103404789039 -0.9030105933468845)
(4.998939937033189 0.01936691426045713 -0.02544234671792808)
(5.037606595537486 -0.02366822640792421 0.008412079834589662)
(5.074243842699302 -0.04757576622475257 0.01081012736249032)
(4.970250945508476 0.005474484241085616 -0.1015686667317387)
(5.007605965928322 0.005981619310028159 -0.02106184052387481)
(5.03872992009038 0.005333273966492212 0.05898809947106083)
(4.995771965500073 0.06807714621784093 -0.03856102817734761)
(2.665191266792996 -0.2729581059111388 0.1965550981500664)
(4.997083659404095 0.002474768097629938 0.002805437341870777)
(5.017884973099409 0.00151014257854371 0.04113279450587663)
(4.937052147841559 0.1041253189172819 0.09045694307743715)
(5.263802324277568 -0.07315508328153172 0.03136934223668798)
(3.60564679592131 -0.3425768416424325 -0.4144609047867172)
(3.4476883129303 -0.2029603501475265 -0.3685874747985207)
(5.040350993104417 -0.03831577419331588 -0.0002317041160288482)
(4.958813414827652 0.002559333815342888 -0.08053110731095241)
(3.716961549561385 -0.16254680206514 -0.1733794349196778)
(5.012747704620626 0.02197375542681271 0.0310942893614787)
(4.830280893946273 0.1512347840805747 0.2019009969603184)
(5.036733077970476 -0.03432303274970161 0.01095737031174366)
(5.038731858774819 -0.02621454095616739 0.01829955263657486)
(5.029487791404549 -0.04124158739780848 0.008358925586670368)
(5.062437646525668 -0.0993951863276811 -0.002851891143708622)
(4.785682415669291 -0.09271991260432055 -0.198713891783869)
(5.023462154665689 0.01358068802005491 -0.0265937524862786)
(3.884752639359002 0.05582792016936483 0.3284005921497195)
(5.036962123056087 -0.04022641915495655 0.006949992038877285)
(5.03874740286256 -0.01330055104395896 0.00968472245463251)
(5.040832035426305 -0.01944939764743728 0.01209267973933718)
(4.118321986758468 -0.01597756058167681 0.4291224381425909)
(4.62865974255025 -0.2383088892327608 -0.004895688543221271)
(5.018965296401242 0.02698652351049531 0.01738915315487535)
(4.618856667324672 -0.04183796782948877 -0.0182034521774545)
(4.948614887387492 -0.07277982410829396 -0.3624159723254138)
(3.478971586716332 -0.1015941946023047 0.2093769848096668)
(5.032086193141205 -0.03784354008835451 0.03840537308577747)
(5.035878443350884 -0.03923154687598722 -0.001763873561476237)
(4.607637638050543 -0.1077357594204714 0.05862203630963277)
(4.988699569686228 0.2239935864928357 0.08954776502758061)
(5.061384377142118 0.06780005834810628 -0.02005669331774524)
(5.064350887011607 -0.05063812851345207 0.02899612849818335)
(4.834107434858956 0.01738094501428221 -0.2310145370661943)
(5.020348324312358 -0.009324364420318766 -0.0189209938196381)
(5.081302292952905 -0.06445752463528756 0.007394492612939522)
(4.631727619839573 -0.2146091721658004 0.1311113313317336)
(5.03417901223205 -0.02920008283983581 0.003207824804635083)
(5.051365349541464 -0.03308033722161336 -0.01776181667709854)
(5.038989051429618 -0.02777489512153646 0.00725083442426681)
(5.036963939664503 -0.02698082447350054 0.007487859876429863)
(5.029709131731986 -0.02283940615168532 0.0009436697821519809)
(5.032241375577645 -0.0217174693142945 -0.001341792422689657)
(4.603762972822762 0.231151347200574 -0.09830118413428714)
(5.04320568193446 -0.02697898579579472 0.003043880076778389)
(5.040154906382131 -0.0145277513328765 0.01136666688302328)
(4.892379894164367 0.1411250381883883 -0.09264709156671461)
(5.031288792279665 -0.0197216267046628 0.003454211630146383)
(5.007633142245131 0.0006324267753573615 0.003804028781988867)
(4.931304646253301 -0.191474398778256 0.08908200498054736)
(5.016695604026429 -0.005623974148091051 0.0008562607834888277)
(5.006460068808948 0.02167698963542783 0.009839928959423178)
(5.139580671411611 0.009146344903814382 -0.07822468191162356)
(4.200631895048084 0.02501368121651023 0.131082410255185)
(5.010233853461774 0.02064113040792434 -0.0300458740532635)
(4.204199293967772 -0.3233752309037751 0.07015659173928042)
(4.516573206840752 -0.1709872610247066 0.1214895866493322)
(5.060945081921472 -0.0229009891979466 0.04803206789150104)
(3.834445715115628 0.695940858318289 -0.8146519791123916)
(5.027165776704801 -0.05914419801520007 0.04252489055947759)
(4.589974780630797 0.1688636006479967 -0.01355592725878311)
(5.231579953840438 -0.1484923044429939 0.1358247955469022)
(4.929294072111807 -0.02022003146258186 -0.02601991936101717)
(5.000824193802672 -0.0003337091194829266 0.002335018244498144)
(5.042538155336622 -0.04224153206561261 0.01100886923462534)
(4.995328753921956 -0.1942263682532026 0.1372854569253844)
(5.022283474926078 -0.01105943166126163 0.02901546450215752)
(5.000920436796823 0.0001437558734687619 0.002558135412410234)
(4.995705167295478 0.002268081713118194 0.002969651464796047)
(3.972788392255922 -0.03374106684382377 -0.08102653060778819)
(5.04088093758214 -0.03258820799301249 0.004673254495535083)
(5.037608915481489 -0.01315976427180307 0.01189056445392259)
(5.029281443474098 -0.02799328307000058 0.01572482771903554)
(5.032476464498461 -0.0173216851791353 0.007399458129864754)
(5.033522177850443 -0.0219988251934265 0.01581283997307441)
(5.043707354583902 0.01158847330995293 0.0427127103602497)
(4.994619853287812 0.003797042714899351 0.0007779027060779911)
(5.038365048515174 0.01520496325469206 0.2386783813648477)
(3.605645076220257 -0.004995179449681839 -0.004006267924833239)
(4.950237565076293 0.004006951107979722 0.003569213414437928)
(5.032536369123992 -0.01736541627700799 0.01326039617969669)
(4.995783125957122 0.005355072667561194 -0.002261550043089664)
(5.031338713028691 -0.02347467643611034 0.01143087917236328)
(5.030548937267481 -0.02426808547666709 0.008234691301261152)
(4.988743321783533 0.008978605103375725 0.001966393883147218)
(4.9887248366456 0.004821046413805135 0.0007011992840829421)
(5.034008012914401 -0.03213598471911198 -0.0005234120121427206)
(5.017046087832507 -0.005607117198804157 0.001916157147410387)
(4.577087937689731 -0.187323792901839 0.1108440314350171)
(5.03142998267758 0.01324511323316021 0.03798618155333845)
(5.052543117768507 0.03281911068862117 0.04315560305462216)
(5.031598266024531 -0.03452219466771349 -0.0002223695879218834)
(5.04029117512306 -0.03677784462454404 -0.01058136969352969)
(5.039797684943536 -0.0194511620926899 -0.004522914697493539)
(5.027244807099341 -0.04748133095234264 0.01294554058860966)
(5.042217467501815 -0.03543668052617771 -0.001663528052842708)
(5.00355002686325 0.001148961766899657 0.00234462227544897)
(5.044950038482286 -0.03522224747003348 0.007755307463332688)
(5.077396610942452 0.01242867515776255 0.02845235561095262)
(4.973671916553239 -0.03012325885446598 0.1881201367220937)
(5.032472908593559 -0.02928517795465091 0.007311100178619293)
(5.003021046409954 0.000331266938093898 0.004307015379889972)
(5.003436052393405 0.002532540644741076 0.003908471097771037)
(4.953108352428664 0.01074342573661005 0.00841714413979989)
(5.004691662466655 0.001161043880590591 0.001743113234588792)
(4.992653577415337 -0.01336953697948666 -0.00103173055784304)
(5.002909986311598 0.0007096852608761963 0.00247908911131454)
(5.032419926119822 -0.01992469229388144 -3.248055900824733e-05)
(5.039801022351003 -0.02823273113213959 0.007260663921922838)
(5.030603009308816 -0.0172873704051809 0.01169775504883547)
(5.037438860846083 -0.009807134375147438 0.006225892577411355)
(5.001474737745854 0.002839033718574241 0.03218614535053146)
(4.985630864310176 -0.01924187522794638 0.1660587060693085)
(4.997214722207039 0.003610290161289338 0.001415312280497601)
(5.045993490038129 -0.03501251666941371 -0.003056536993223937)
(4.947658679281699 0.2844321793454618 -0.6414880103381934)
(5.048646703602495 -0.03707371572918946 -0.0137960388540801)
(5.007707627654295 0.006239872320626141 0.01477084417611122)
(4.961219090681485 0.03193822933137992 -0.02928700352193249)
(4.973595962844476 0.03968576462482132 -0.03629667490551618)
(5.037187947865966 -0.01979338534491541 0.001618129585627534)
(5.032703976591526 -0.02077388416971756 0.0010672088545525)
(4.98869332105438 0.01237270656915694 -0.01567673026746623)
(5.038475377742134 -0.0270573668500728 -0.007679647281573908)
(4.999854298461349 0.0001335666923322593 0.000624582232252268)
(5.036751826173441 -0.03742092746860173 -0.009426076678058925)
(5.030307602894993 -0.01552986294975097 -4.312985026371687e-05)
(5.03901042279271 -0.01391252903958547 0.001856368647369127)
(4.971565714110938 -0.007512569448824927 -0.0006974341419829668)
(5.044990795092255 -0.01087489465114839 -0.003523247175247898)
(4.989661080573158 0.008225703153631057 -0.006009178274098376)
(5.048874070653423 -0.02065738784443687 0.01047904615006337)
(4.670862738918449 0.004919031792990063 0.00872254579369848)
(5.003411890037698 0.0006886209320466311 0.001257226230214094)
(5.025860064935184 -0.03905406356435692 0.0800440150909202)
(4.799272784753369 0.04414162266784979 0.3510392307426189)
(5.006446824496638 0.0002586389667163577 0.003031986531403874)
(5.004401721485164 0.002151747136000392 0.003652157851725511)
(5.007189703490581 -0.0005486592903204238 0.005916235678135953)
(5.035095645423237 0.1108011915291562 0.02915043900141542)
(5.001101085457295 0.001620972393657294 6.587554443144221e-05)
(5.003150635737448 0.004060930727271345 -0.01037607975263113)
(4.976770612093647 0.02058018777537856 -0.0173109100581055)
(5.000049323428815 0.0006419133662388425 -0.0006908413088297393)
(5.008561654002974 -0.002962955755274815 0.001023428700073864)
(5.005880191598509 0.06867941661313541 0.02525441526250631)
(5.036111715926898 0.01580849618613518 -0.03991361000453306)
(5.010764149285424 -0.001635303231227282 -0.05959203917898375)
(1.819933622729754 -0.3849722981855473 -0.617221493824766)
(4.965689525779391 -0.01852481868850627 -0.07681208598203092)
(4.99183944503462 0.009446215007257095 -0.004118695296403995)
(0.08695560387263566 -0.03645308124330749 -0.02341395384756668)
(0.01629223592951291 -0.03821927668596338 0.01851429057588713)
(4.3594327460369 -0.1357517760123294 0.04602890068005358)
(4.879169608188821 -0.1547570279126873 -0.1663949517746895)
(5.164719675012145 -0.02531268797126447 -0.009746232386644953)
(4.60502029658936 -0.2212676326437361 -0.3278634206410712)
(5.098759638344286 -0.05436697157516801 -0.066781285774676)
(5.001518017891883 -0.00226737036456022 0.02241040264460249)
(4.426943445158035 -0.0921694361819973 -0.05272989482313457)
(4.984038678102412 0.002845852617831733 0.0004067412295248739)
(5.045492889723724 -0.04014621562489587 0.009747419078433654)
(4.999219477998841 0.0006804891724528372 0.002349006551079404)
(5.002468326380145 0.004010809817261392 0.001154606670763062)
(4.997210590538059 0.00341124183759942 -0.0006648687535209449)
(4.960935737120573 0.003198046589554174 0.0009892090516777552)
(4.980138726243371 0.0002460638390512167 0.001178658694627558)
(5.001018448186146 0.001203368064698853 0.0007689568628904435)
(5.062199371694671 -0.06898171149567663 -0.03310021907119365)
(5.013319452207766 0.004886490973113228 0.02959887057572206)
(4.97335566967515 -0.03475022772092787 0.03308950543019006)
(4.824051880674291 -0.419565547456584 0.3395053896556439)
(4.988845819254663 0.04731118227340882 -0.02204640821153238)
(5.071647136496881 -0.03183781595470918 0.01769820975335569)
(4.974968465525334 0.009908490064090449 -0.0003856134843212813)
(4.877472168460763 0.07693138111392915 0.05881436960249433)
(5.051807808693152 -0.04626219241111178 0.01180405651200346)
(4.741666688198508 -0.1069321259933271 -0.1281832378787836)
(3.27320114152891 0.09501990736858469 -0.1671108538681724)
(5.04481195520295 0.0038988182630064 -0.01878249373586167)
(4.996827086904596 0.03612673019429944 -0.03568231881057826)
(5.041178508481206 -0.05738213553770073 0.0194159871092029)
(5.014307165976591 -0.01153279454502945 0.07596802658047126)
(5.003084478976197 0.03103512464340894 0.07849368628689686)
(5.022852918349948 0.001250301174785361 0.01940645682918964)
(5.007278520091531 0.02781120323826506 -0.02767437645191814)
(5.001676747566797 0.1209810304649479 0.09639923189483381)
(5.035045717109543 -0.05790042896690073 0.00328369446802471)
(3.049734232270587 0.04631565262947733 0.1595055305861832)
(4.516146589307458 -0.1850460788912579 0.1902026447827235)
(3.792241381956446 -0.1739033850329174 -0.1066802551819474)
(4.99195238823788 0.0578527750208461 -0.06031623416654367)
(4.71504955295617 -0.08442046793103242 -0.03539131630465155)
(5.002834745492685 0.001438027236036822 -0.0006738017553272888)
(4.149984173935332 -0.0809347218463593 0.2211409341102487)
(3.776469100305069 -0.1320777155505981 -0.2153858595778061)
(4.997735966360382 0.02596407911712992 -0.01224576350105228)
(4.926274715073215 -0.007738294045358551 -0.001923731567203879)
(4.455138610401834 -0.05240163490955395 -0.06132187216979831)
(4.999364190747736 0.002671685489202806 -0.0006946795000903063)
(5.075327818667844 -0.08908848962531379 0.05081133988043221)
(4.980832955316016 -0.004841088401022091 -0.1034459289770451)
(5.054822752847753 -0.005667193697582399 -0.0533916309955614)
(3.40851063360691 0.4362087984649735 -0.03449130276360837)
(3.77866034545127 -0.001783184144516748 -0.03331902301732346)
(2.202963568765012 -0.07096932068946676 0.6224818392662734)
(3.217104702676739 -0.165607371598326 0.03062148285314625)
(3.9468678603342 -0.05449249710054367 0.2735984247249076)
(5.049833262560284 -0.008166248250422671 -0.009388463320948488)
(4.968970087080022 -0.04395856897439869 -0.008172243936164888)
(5.068355077834217 -0.03940642164767033 0.007070758522358386)
(4.986958181448911 0.01836200546271138 -0.001978948230445847)
(4.973548370483647 -0.00418216609978937 -0.05601658196628206)
(3.376254999340911 0.003388833468768133 -0.380019841885141)
(5.188209287571619 -0.00407694950472912 0.07110386674336092)
(5.000303384603217 0.00112122332909041 0.0007345651298174301)
(5.079070129430238 -0.06499669522971199 0.05991857278557756)
(3.888341671556803 0.07317079305004967 -0.3792329142384862)
(4.989118448862563 0.03416038674718763 -0.03339610884465418)
(4.952184390554831 0.1061983935999026 -0.08371141284122971)
(5.137333193225835 0.01315544507101692 -0.02442463063450527)
(4.879588663788637 -0.1206153372980176 0.04830565248255281)
(5.074899809323449 0.04784742373647932 0.03248729023558074)
(4.940273763908736 0.0006735017714008484 0.0005228033742533766)
(4.916965054780402 0.0659622509283673 0.01876055162435933)
(5.025811544069112 0.004473397251342472 0.02028670639925937)
(4.453680548909131 -0.09001857001325485 -0.09535942476601991)
(5.030985211581175 -0.0659639650424922 0.0005667172483514778)
(5.025773893898275 0.002708503495613738 0.02251426602181248)
(4.948232247827144 0.3740708985290558 -0.3063928390571524)
(5.057523919676041 0.03260883794909347 -0.01899716906113825)
(5.001612821950415 0.0005663971047402975 0.0005026393560803739)
(5.002120423474753 0.001565105396420843 0.0005584950723057148)
(4.991562708898063 0.005803833152612408 -0.0635699402700929)
(5.087170924726026 0.01301722478005738 -0.1076123482197869)
(4.773430834444821 -0.2031587659215377 0.01559858572762129)
(4.786069140941207 -0.0682382698270893 0.0007909172300134678)
(5.042286322356687 -0.05073954025462878 -0.01857867783835102)
(5.057669035038086 -0.01171277251797347 -0.02483227693710745)
(5.00160315743347 0.0003592422962733508 0.000679398755126938)
(5.04073006118831 -0.04338446471091638 -0.02476333472560563)
(5.044069946947771 -0.05825445299411851 -0.007233168998182503)
(4.69510682279169 0.04655915184742057 -0.0648125916159564)
(5.041442378947179 -0.03660583336331846 0.01157238536952565)
(4.994374948377364 0.04487746331674904 0.01609090648028645)
(5.031540991421864 0.0177416071512936 0.0563064071865382)
(4.98142898377119 0.09096049477771781 0.008131484918669867)
(4.995564339839047 0.004436619497229133 0.001579152988785143)
(4.989043323761656 0.02915048007562504 -0.05470682372335055)
(5.000848474317322 -0.0003702466537303459 -0.0006865745464159909)
(3.994499506241903 -0.2717887489052525 -0.395234614690877)
(5.022903396479438 -0.05324677377611386 0.02678103614645364)
(5.116929706624973 0.07897551780654938 0.6029480979001688)
(5.028057007127058 -0.05171568791635556 0.02894972094074666)
(4.941351009102231 0.08806417586111702 0.02365607734846684)
(3.89882875414116 -0.02274251354132378 -0.1483355119715918)
(5.022625648703125 0.02175141766954426 -0.02177641738703524)
(5.072607761149007 -0.03961525355851553 0.06628806423007952)
(4.801387622718472 0.07630165846534145 0.03414249916489311)
(5.003143724620062 0.001621429123646374 -0.0001276022282559125)
(4.495153108635026 0.1086486559272752 0.1649325525952701)
(5.043555712490275 -0.06973363295059166 0.01742341631682756)
(4.997104221510513 0.001533446029299634 0.0009002263331003065)
(5.302579565347835 -0.1443209755468747 -0.02746265032612294)
(4.944465357303638 -0.1738068048897565 0.08083735592663147)
(5.017692909002243 0.02774209544249038 0.0364530801909143)
(4.757536363091692 -0.003863915338105492 -0.03645541579521045)
(5.032504860399967 -0.01613209316207203 -0.0001547143685414664)
(5.0085677947951 0.01034441225828689 -0.01687321875427194)
(5.007204106695534 0.001385936831312088 0.003929221750692539)
(5.027748076750377 -0.02522418331488365 -0.01116406260695525)
(4.999489269607032 0.001425652584812802 -0.0001154900523262054)
(4.97096514969112 0.1166266931663214 -0.2518032822497672)
(5.019542144730837 -0.04596784136902764 0.004849842866884564)
(5.013183748863145 -0.001460016914961174 -0.0129195262657682)
(4.706940301753304 -0.02768490354175444 0.03774638313965329)
(5.027883401408531 0.009250360476638969 0.02244502999794266)
(5.021535985117883 -0.0198132010255616 -0.05264201222885707)
(4.971751292154353 0.1439645492758499 -0.007233345102172869)
(4.962383521450681 -0.1522380324910827 0.02657299660936594)
(4.875933641219065 0.02883471342893371 0.1294953207440791)
(5.091478503075894 -0.04731968536743351 -0.2620635405516525)
(4.616238662266023 -0.3436551962173076 -0.8977906812727027)
(4.943566666956094 -0.03434937386575614 -0.009963052605652004)
(5.074528570460938 -0.01170431329064513 -0.03517221105494413)
(4.75988252834755 0.05100978405401187 0.1004499233365078)
(5.009646644423148 0.0432898771177752 0.02452461220305279)
(5.07719289591748 -0.03626443056015063 0.02877261782388685)
(4.572652829226174 -0.01117205135869051 0.06400655741917233)
(4.97308449084897 0.09143195268500127 -0.008695685118055105)
(5.051350117868306 0.04477243729293236 0.01414992502892331)
(5.032095967473659 0.01787900283813951 -0.008813027809678945)
(5.011102241500777 0.005882201944875648 0.001662044444118438)
(4.999946288986457 -0.0008038873811365727 -0.0003190967727312134)
(5.01810138482724 -0.1141761036687679 -0.0193630257863954)
(4.998739092960932 0.0009395259952545868 -5.623661523411038e-05)
(5.054087679819929 0.02985168456834178 0.05625053310570367)
(5.004391337786426 -0.0003628297950994837 -0.001361855127730037)
(4.960018491056444 -0.2091670323003702 -0.118532823703362)
(5.029653575735561 0.005507272372340537 0.08132576925348151)
(2.729637549708803 0.08896096400030717 0.0872098123255991)
(5.041360653860731 -0.02200697501651395 -0.01900144443242482)
(4.314654449679999 -0.1342722994511763 -0.1271591423178784)
(5.0603416913402 0.1132913775022495 0.007152728278083449)
(4.98480754659446 -0.04787922780357334 0.1226570862319662)
(4.163486991911205 -0.192985256021767 0.001512977781164206)
(4.870665215335552 -0.1136040922310292 0.02055274280994882)
(4.658919715729139 0.03225894432886398 0.07130808418706719)
(4.976937182780671 -0.0919206162299777 0.011571541970154)
(4.997290851218311 -0.001012437016174934 -0.0006754341324312247)
(4.998538918577323 0.01715611166263768 -0.03922109394696463)
(5.020665353844649 0.03547387318575772 0.06213669062090666)
(5.014464722763136 0.01396200126418539 0.0194123766104474)
(5.007696713473883 0.01215902139008888 0.02269067825791353)
(4.98865263756096 0.01068485832368563 0.001176181730512526)
(5.00368559968376 0.001495174554273126 0.001645097300433274)
(5.011586294885575 -0.0003013819256473255 -0.05154221193900278)
(4.172815837684294 0.1814659520365782 0.05700481291834509)
(5.00128636491875 0.0004466243837144364 -0.001431657672375547)
(5.04154006681455 -0.03507588690931103 0.01963382769168836)
(5.008039001352271 0.02130076158444309 -0.00298733925584703)
(5.038633682990378 0.01120989250389498 0.03369545012601293)
(4.557064044573565 0.1964017348229692 0.6642994607517132)
(5.081809008621406 -0.002240049703344116 -0.0393805246260801)
(5.011163584082918 0.02737769586181645 0.0156102552145471)
(5.024662729918822 0.002857782447550517 0.02387808810183935)
(5.023970684511556 0.01494977937077517 -0.01404318861795411)
(5.041497406284731 0.01564727940630219 0.04833868381271599)
(4.976035836067199 0.0381278840309424 -0.007202833102202114)
(5.003375331363499 -0.000259332939745362 -0.0004560036036393443)
(4.999465682157554 -0.0004299859072216203 -0.002235778370067182)
(4.928288018885175 0.1769275891545702 -0.07657912985273443)
(4.999759890710355 0.006259736168974388 0.006791203824897003)
(4.958507216518471 0.04251723417501546 -0.0674819069382649)
(5.001348397491587 -0.0005275020727190161 -0.000654592950222661)
(5.01854946558726 0.03333451804094568 -0.003608225465620958)
(3.962573337211253 0.3058123343972292 0.1458584370976879)
(5.087445384162726 -0.04717962657482622 0.05770827983727881)
(4.999630114421613 0.003889242255838107 -0.004977218492862112)
(5.020933194270583 -0.006565068081900174 -0.003181997411981834)
(1.918604317580453 1.107804986556079 3.607712559420696)
(5.007408893036155 0.01556410003654554 0.008019416994902681)
(4.999286061901195 0.002350626207772613 -0.002959781965930833)
(5.056257475894716 -0.05877534688686851 -0.02816694709870362)
(4.985760462977124 0.005005445495357763 -0.002658188073055506)
(5.034710422408029 0.0275128028073029 0.03073946302762277)
(3.43543497270517 0.5053580471270033 -0.3815907749495331)
(4.96199865504122 0.1356966937246534 0.0120699663749118)
(5.057526170295698 -0.07771963105210479 0.0007072173339762169)
(4.987997265942296 0.005772661932927529 0.0004743094286073606)
(5.001964059871326 0.0002935927677440809 0.0005023920931298116)
(3.952466389670908 -0.1125378400248959 0.3088775018949096)
(3.89095681706945 -0.3348931478719752 0.1656578741735965)
(4.987773774550398 0.005917188281826588 -0.001108163223209603)
(3.56002766529054 -0.1026036610013817 0.07580926401522246)
(5.001417378433426 0.009996578707614974 0.01459870864854411)
(5.035289627662888 -0.1568992497660004 0.01138193616628802)
(4.996247280457472 0.1265394574351268 0.08526076153881773)
(5.000344964723675 0.0004797062990685277 -0.0008142322662807589)
(3.727792182702071 0.1242264265223666 -0.09868365858153606)
(4.98726254823206 0.1264257096560436 0.06451436729503855)
(3.842984552510138 -0.2157486547185321 -0.2180589237675976)
(5.038942851341047 -0.07187262761581388 0.04809301570608048)
(5.04229548372621 -0.03443648787770334 0.02354858993960869)
(5.050041290727656 -0.06808408755581422 0.01868988779786107)
(4.92119103257176 0.06430756928939374 0.1203120555048604)
(3.456934539289692 0.1855210424419741 0.1132479701216437)
(5.03636505659708 -0.08944037667461013 0.008991890820136125)
(5.058823041881811 -0.07030045843088575 0.02463555777588994)
(5.080032823231878 -0.03440362437856644 -0.04177792772307416)
(5.010735441859635 0.1274048760402082 0.09395004809374201)
(4.996293650932615 -0.002996852175086918 0.001257666934207501)
(4.990589072123932 -0.0001250525406039203 0.005402854607646898)
(4.462360843852246 0.158327521962386 -0.1015292205785129)
(5.029133010294172 0.2447668928450853 0.01379189500884031)
(4.998346821884629 0.00287340466003122 0.007429293180172368)
(4.99101436268192 0.005813853138628986 -0.001372728884472077)
(4.985756793173194 0.01333003381775406 0.02787163006908503)
(4.89366274484622 -0.01941389607875637 -0.04486689591049415)
(5.01978488414784 0.003329953844151167 -0.01189728444633015)
(5.068632588670626 0.05672073258860644 0.0481394306163191)
(3.736242254365556 -0.090916209501595 0.08201362746554014)
(4.958309009139625 -0.1926753554416312 -0.0903020738687218)
(5.005880991677011 0.001419851377412682 -0.003577024254616728)
(5.041330116219077 -0.05641787042600355 -0.01512453322699734)
(5.072775416647777 -0.02923046125939358 0.02349712127263097)
(5.040191910813819 -0.1202267652481454 -0.05387466786287379)
(5.072991693108482 -0.1473904541478415 -0.106069376053277)
(4.768133729964989 0.1856215916354077 0.09259420789045417)
(4.786975564508654 0.008283294349969057 -0.04918333385525017)
(5.002459044207628 0.02127160375930473 -0.04304695822744373)
(5.208706652283788 -0.04121173304662777 -0.2544594814476223)
(5.002261011291974 0.0379720546220866 0.02251264859770514)
(3.53411714161294 0.2332211102433011 0.1203011685313155)
(3.475204417718072 0.1518516866640439 0.06096933164346549)
(4.850663407310127 0.02505518372079034 -0.0159193972182632)
(5.000411179241048 0.01368080268227979 0.01832995872385596)