/*--------------------------------*- C++ -*----------------------------------*\
| =========                 |                                                 |
| \\      /  F ield         | OpenFOAM: The Open Source CFD Toolbox           |
|  \\    /   O peration     | Version:  v1906                                 |
|   \\  /    A nd           | Web:      www.OpenFOAM.com                      |
|    \\/     M anipulation  |                                                 |
\*---------------------------------------------------------------------------*/
FoamFile
{
    version     2.0;
    format      ascii;
    class       volVectorField;
    location    "0.3";
    object      vorticity;
}
// * * * * * * * * * * * * * * * * * * * * * * * * * * * * * * * * * * * * * //

dimensions      [0 0 -1 0 0 0 0];


internalField   nonuniform List<vector> 
19631
(
(0.002499567822741128 -0.006468898575785478 -0.004768725773465831)
(0.02926553965658418 -0.07108986776561704 -7.900738276903269)
(-0.0279152699619487 0.02826572587311169 -0.001229876068930278)
(1.490236060560376 -1.393141481480382 -24.19650892137256)
(-0.02746827278104749 -0.1190059187615146 0.2149269273879083)
(-0.1995726845009454 -0.04027562702231865 -0.03048833312812615)
(0.001932153168740094 -0.00249660806801975 0.0006509381556015336)
(-0.4483046489848004 8.707750601784694 -4.489508152780688)
(-1.232298599954592 -0.04762666164173096 -0.1088767698499713)
(0.001154622328317346 0.001460821525491681 -0.001061899150343286)
(0.08074874303735692 0.01459207720416551 0.0177222283582084)
(-0.07716617395945057 -0.004020022859060563 0.02224654093952415)
(-0.6972752404004943 -0.02979831233090023 -20.22911908240677)
(-0.04306151296838455 -0.04453906522216727 -0.06850814922205539)
(-0.0009251321510981317 7.407747526036831e-05 -0.0005208525042718096)
(0.4759311533796701 1.09224153261214 0.1981962750857547)
(-0.1047927608522578 -0.0493860414604131 0.007849932563024858)
(-0.2689804409755696 9.056835195237529 5.154705142971094)
(1.623349279016794 5.433984965405049 0.2849025383645855)
(-0.8525371527762881 0.0442368799690783 -1.086104971401512)
(-0.06469039804817633 -0.009059384922209399 -0.01533721508860423)
(-0.05071458576275188 0.0591776352136766 0.01869379813065241)
(-0.6896435646501791 -0.5392542903185722 1.117836141389579)
(8.956368495445705e-06 0.002370729760538724 0.001142515833442263)
(-0.1092572293802074 0.03243181177722859 0.008246166597241956)
(-0.0007890021190429023 -0.0009407016888603508 -5.460741273007206)
(0.04238271113859181 -0.02366522820925005 0.0296389739331219)
(-0.1747962937958549 5.344987383517758 -10.00414696826611)
(-0.1716772957526654 -0.01929113770145539 -0.01099946863201773)
(-7.27073129083839e-05 -4.734326081376997e-05 -0.001048829306285605)
(0.05398541555381339 0.006510767528327592 0.001861977059019304)
(0.01373860839222825 -0.004352069233816897 0.0121328895210192)
(0.6516151913388935 -2.382162164984365 0.8601169065735342)
(-0.01969713910774143 -0.0006088163734325643 0.007880320763437712)
(-1.134502943977716 0.1919920258786481 0.006618876195607581)
(-3.20336713232541 -10.22238915544492 11.58054323085682)
(-0.0007833471989865008 -0.0009595781763120589 0.000825036097906226)
(-0.01736470970506324 0.0378680873916595 0.02346780103042921)
(0.04302571699986085 -0.03521123014143349 0.02502281843271532)
(-0.03333053355506413 0.03702183967321845 0.05547687539721284)
(0.5018853840907774 1.121858683590981 -1.156388805777669)
(0.0726863356296993 0.02844819912066169 -0.01244874447386522)
(0.001099782096799175 0.0008620004847305205 0.000904080415777291)
(0.04922198398388335 -0.02037608068263622 -0.01934691418707174)
(0.03852182903411418 -0.5101686521922708 -0.9679581518860161)
(-0.03959755531953907 0.7026447953041265 -1.060882614026687)
(0.0005220275112462792 -0.001859500288031109 -0.000857763168744715)
(-0.01744004339045834 0.007787615393262323 -0.001657748590237347)
(-0.01472470313424012 0.01111709360916079 0.02166591462223291)
(-0.004218676210533741 -0.01657600572217738 0.001272708377519806)
(0.003406874241546319 0.04353776511927517 -7.233367975581023)
(0.0434677169539422 0.3899123098324127 -0.6638146655370636)
(-0.04698438802932189 0.002956223764846288 0.005316905419129074)
(1.070804689643243 2.100013654526388 -1.800555992549854)
(0.2811066013209159 0.3185505959006142 -0.1798864504685352)
(0.6694786114387873 -0.1024060038464448 -0.2393047816622492)
(-0.01112486152615652 0.0269840215987874 -0.009144305038898308)
(0.09205799341934409 0.02150171394610764 -0.00575056598154423)
(7.272273966350456 -7.681208370275375 -6.28097918473428)
(0.0006055892224427097 -0.001555998083352478 0.001041636628022386)
(-1.931398449212614e-05 -0.0004838095058285554 0.0001109512723434803)
(1.109043260542319 -6.458283274020178 -1.833130394595077)
(4.57624995685055 -6.467003513114813 3.930948651708221)
(-0.06719308298302593 0.02179492293156749 0.009279191737859266)
(-0.02429960443162646 0.02007652987162462 0.03617617699163354)
(0.7280747050086231 -8.382107871195572 2.953490361051886)
(-0.08705887658162483 0.02745111573340426 -0.05162055900411279)
(0.01708369647158774 0.009417372451260151 -0.01195874910302976)
(-0.0120432801615549 -0.01683938588089971 -0.003210916652391031)
(0.0004510769536300466 6.521711671103516e-05 -0.001768902118634373)
(-0.0008018089297255649 0.0001273783091130082 -0.0004832430106237451)
(-0.833897020255665 -13.75649683137603 -15.9903599675033)
(-0.02529315080697223 -0.01052238921186302 -0.002668151358723579)
(0.02420570864307639 -0.001754413982921093 -0.001371675009396479)
(-8.898500422428735e-05 -0.07117424227653579 0.01044281488337858)
(-0.07734900312661164 -0.1039004810419196 -0.2524889763533215)
(0.0157153618701098 -0.01273571798142637 -0.0005773622467088197)
(0.06002559509455203 0.1219592425029834 -0.07660133150825657)
(0.04661487871582499 -0.06004199746586021 -0.1164193170568967)
(2.580407842983202 -16.20953746285852 -109.1393745159764)
(-0.007019500629496948 -0.0002324785762450924 -0.002476047786679113)
(0.01392016626983368 -0.0304701040144844 -0.01772940453081095)
(-0.02137385080259879 -0.3165955997415213 -0.2140735973046983)
(-0.05150646624921654 0.2627202198605288 0.182379989065594)
(0.5976907395015505 14.3552868591293 -0.4209381783154804)
(0.2202865035739781 -64.66214798052539 7.508090049687078)
(0.02231318627589418 -0.01877082198813147 0.02031504905034084)
(-0.3023129645407953 0.2248455727267976 0.003724821187668592)
(4.926464522666027 14.66497540286152 38.08343349854906)
(0.01203848534236473 -0.03646862595759759 -0.02592229479498528)
(-0.6906116294025928 0.8178942974945693 1.351055750133795)
(-0.02210334627960001 0.02438966774635438 -0.01063274355618079)
(-0.08082924203780451 0.02160561101185204 0.01813413046885356)
(0.05962795487978729 0.01599461858169765 -0.01922143003031047)
(-0.04260546022432307 -0.02269224585683232 0.02165135971019008)
(8.112272649710718 22.43226268845534 2.350656362184745)
(0.01322782244737901 -0.002932989275659807 -0.006344033788892886)
(0.626565502850148 -0.2759638647726861 -29.93294775406898)
(-0.01065007046622923 0.007711446323340922 -0.03040621146369587)
(-0.004616394588143738 0.00198296594693287 0.001840430195711355)
(0.02650677788903655 -0.01430742534132796 -0.001796423596827768)
(-0.7975091061676611 2.548305454125884 2.777308299867038)
(1.255918389493641 4.520048825714932 -1.983529413194512)
(-0.07634638440139496 -0.007310356459346792 -0.02697404162757487)
(0.1060831600829333 -4.353827467857154 -0.7430687444529896)
(0.02865548484246483 1.023979023568873 -0.7643582824022042)
(-2.689599086999125 11.7524646459773 -0.4845359120775307)
(0.02873990519040002 -0.0002223102596554871 0.03826599731138654)
(0.08272679886024809 -0.01382677397849307 0.0750957033914338)
(-0.5553280737950934 -4.398854293019103 -1.205239099460451)
(0.1174145661731668 -0.2879469641719873 0.2854677569914807)
(2.510298777331816 -4.146231176071507 0.141580193310144)
(-0.2177507138731033 -0.01323212604148613 -0.01574255255868441)
(-0.2642271140024062 -0.5745532469520672 -0.2790812788395689)
(0.01070273957337808 0.004217936896922051 0.006639648709243049)
(-0.4053327370470683 0.3853670919560229 -0.5666406836165899)
(0.7175472362687521 7.021314713596682 2.566744131211846)
(-0.01863768510651732 0.009735172739360212 0.03049391987068083)
(0.09388511967102224 -0.4888668789375533 -0.1651273251027511)
(-0.01047687243999063 0.003354425862205568 -0.03587986202573255)
(0.0001016949391996198 0.004952639748432552 0.01305944761201461)
(-0.02480453068837928 0.01721359982302095 0.02693770685654095)
(0.005009049961974654 0.016940684550615 -0.01559346007792681)
(-0.2025624448967757 -1.306266995828279 -5.831899689106204)
(0.1216603716434342 0.08948100249861574 0.03952827407810586)
(0.05604568292320342 0.029998237855314 -0.01127169138783829)
(0.02334372266037585 0.3139457220725189 1.032964179675259)
(0.0253389742348911 0.02249010895856683 0.007947323648696677)
(-0.0001941787976456558 0.000496143179493695 0.0008934485925464644)
(-0.3226352608805582 -0.7563901178677147 -1.320834720188665)
(0.002221564160746176 -6.433088973568793e-05 0.0001967835569041889)
(0.02517737867227956 0.02655214004250692 0.06641795862047421)
(0.07776791980048946 0.2217188487328776 -0.07176906013263475)
(-2.231302431257352 0.5485509307867106 -11.25930684833126)
(0.04122857935632306 0.01767952961165421 -0.1128184272248365)
(0.7083751165141949 10.4931869294389 -3.999227240056568)
(-3.671184209366591 2.978442567439886 0.09857421562205282)
(-0.1220214904677518 0.07522889106564036 -0.05932135563111987)
(-4.42705743865892 5.532953768860944 -44.73269240245148)
(0.01620807086661168 -0.1158000640116779 0.04963360454406331)
(-7.489289818887089 4.851862601390317 5.299501227867862)
(-0.01530175039658749 2.507797080979312 -3.441441756213603)
(-1.033053380829674 -0.3353330285000085 -0.2945901464330033)
(0.002247989855596764 -0.001447552127005715 0.001829244385046185)
(0.05239329860010482 0.01342235931954357 0.01091261602481644)
(-0.1373876894863824 -0.125577541289306 -1.69526935431225)
(0.08089444194953216 -0.02191644761644116 -0.02675174650709993)
(-7.904996029686035e-05 0.0006314333917491616 -0.0007610072830808836)
(0.00138942689828661 0.001157800203132067 -0.0008017326241493302)
(1.564029681598221 4.270321262587501 -3.525782114990581)
(0.01031544975193764 0.008648895618082133 0.02244516517901709)
(0.003729782250325123 0.02535737080983277 0.01848058897344355)
(-0.2346234967815777 0.02365805621640012 0.01865567498522721)
(-0.04767351485387458 -0.02382852478674459 -0.005564524815174022)
(-0.06028598625845587 0.02707913671951389 0.01904290061928107)
(-0.04946770439337549 -0.0134373221841949 0.01953150523063297)
(-0.0009945603730649988 -0.0004470331638698534 0.002342613427220588)
(-0.5958558314648683 0.0863982014048448 -0.2171303138329047)
(-0.4392020159724682 49.46508475399543 5.597298276740731)
(-0.001878885520191707 0.07543057710163795 -8.956017242110423)
(0.05013703560492094 -0.00748603406071454 -0.01940293766732706)
(0.002284510771097184 0.00066012663525898 -1.638605733215526e-05)
(0.009649014780047073 -0.01433012220965291 0.001927220644934426)
(0.006176643195596526 -0.007689696549856578 -0.02597198008676282)
(0.001005476967795395 0.002735559292306678 -5.565927475594638)
(0.002182798918033663 0.00432416686142723 -4.908256870862232)
(-0.02083469215536858 -0.01131033632690543 0.0140811546036766)
(-0.006799676089319176 0.004353046280072616 -0.001718906440705879)
(-1.178546693837429 -5.534766741064346 3.190288538626394)
(0.03264880895921456 0.03300991513982627 -0.01996186969458052)
(-0.3648830067679483 -0.01268310341469688 0.1197387620809878)
(-0.001379608837260423 0.03878827863313691 0.04224683053469862)
(0.04787616378704439 -0.002390652648058744 -0.009428968764699178)
(-0.02031778639429944 -0.03867249392786248 -0.03202100077301455)
(-0.008944053475369005 0.02384679243085186 -0.03671138067295502)
(0.01708099713271438 -0.04521145892670999 0.02279051978311861)
(0.0003396454711861058 0.0004521465993888689 -0.00220682093950506)
(0.02086782839578216 0.0494054680510429 0.05643290532510244)
(-0.01025814546901994 -0.01428838541918097 0.07232493867345746)
(-1.749033788347782 1.173991148494691 -4.935846086878426)
(-0.05503536610574599 0.005485785760922656 0.006336108183155524)
(-0.001458300287343769 0.000121370514983156 0.001167368818772898)
(0.00200964791723361 0.0008659995333500649 5.199771782413403e-05)
(0.0007801457933281812 0.01550673087054191 -5.716659583116033)
(-0.0005789211133505577 0.0007497507556425463 -0.0009194995210172714)
(-0.002650730860531029 0.0004436240433018054 -0.006998874117887028)
(0.004848062829015442 -0.007950723691316774 -0.02685258404877636)
(-0.03117268352632507 -0.00135666742863837 0.006723913020562302)
(-0.02497739964396137 -0.01560714618841772 -0.04175397492452232)
(0.026191688469264 0.009718564303062015 0.005751810127321443)
(-0.09971512017937587 -0.02524287763031384 -0.02060465172013652)
(0.003149961246615562 0.010369860177859 0.004047280893073831)
(-0.1803953673672088 -0.316627984867557 0.2328793834918629)
(0.0007413883059787619 -0.002260004826849058 0.002486945244465248)
(0.01156444787257747 -0.01489858934400536 -0.002797112783143813)
(0.3202626492598924 0.5493312266824215 0.4439473959818793)
(-0.005149163518148109 -0.02019363325248981 0.000819597072536999)
(-0.001489075505865922 -0.006628441309079226 0.006820011229297106)
(-0.003802653594179941 -0.0164507488013777 0.01656192327470216)
(-0.01432105195902212 -0.01312706461308408 -0.003551935207846472)
(0.02289242720875148 0.01704659527124312 -0.0003889170578931563)
(-0.01599693260397017 0.006407590460750346 0.005926765952974049)
(0.009808613970000261 -0.002880668230910277 0.0004089015214935801)
(0.01621287486155765 -0.007286171108048191 0.007611507210913274)
(0.005195970367701003 -0.001699627625002424 -0.006312169017253051)
(0.05300502659433113 -0.01495132661828896 0.01083159560252059)
(0.0604447316550334 -0.04774021656305349 -0.05272783691538146)
(0.01166254028649218 -0.1711551249290593 -0.1128473772830683)
(0.0009505198500481301 0.007561445401067977 -4.896010866558179)
(-0.02919752267389256 -0.03738423365292638 -0.04175582255819146)
(0.003271040757081423 0.003321358207545767 0.001617536155866613)
(-0.1677385715470714 0.08045723809147631 0.03535299798754921)
(-1.763823856491399 2.297178598052784 -5.648730756808066)
(8.520244911113239e-05 -0.000106684008153546 -3.525478303949075e-05)
(-0.212486943107579 -0.0143096837371935 0.01808091804491712)
(0.6821041069264044 -0.1316623264360942 -0.2291610785734248)
(-0.0003528367268602615 0.001225833684392226 0.001422374377981119)
(-0.003872947363490028 -0.003372348034294956 0.001491051636833881)
(0.0004233244208972597 0.002907616604121203 0.003000235789723556)
(3.24776579693138 0.9211849989235672 -1.787572247270463)
(-0.0009058431845348537 0.00106244507687881 -0.01506978183480477)
(-0.008135877589629427 -0.03152690219039462 -0.04289586782779381)
(0.02594795425909336 -0.0003767933279181161 0.005829918194116136)
(-0.0007095984526241506 7.73303923983506e-06 8.562751285064919e-05)
(0.00514207957731551 0.001404289248933927 -0.0005354816067402038)
(0.02271644794638035 0.03425863610615954 -0.02789161533819581)
(-0.04027158497042413 -0.009864801309761889 0.02256666695591754)
(-0.05652504125842467 -0.003957528786921929 -0.01468592993171243)
(7.991394535644191 7.660809642565644 22.78628501250796)
(1.013201366913133 -3.703812712751891 4.572910199368152)
(0.0096578628300679 0.004030750920869052 0.002476653004236907)
(1.097429307087989 -2.006213863846074 9.654084060891741)
(-2.53589569579905 0.9781558977010282 2.398876120222563)
(0.9404570891636785 7.711921781353243 -1.797466171397406)
(-0.316260743587816 -1.924779287322588 -3.456732914254117)
(0.3084197860341016 0.006443031767201332 -0.6503506628067135)
(-0.5304810106704712 5.012142309452924 -3.743129917364469)
(0.2346398101448389 -0.3351203852887859 -0.9514035039831537)
(-0.01098112766143147 -0.00344466652850671 -0.01409015591515369)
(0.06888235447558633 -3.087648203347709 -0.4349214437460241)
(0.0003783854613131266 0.004253230263205006 0.004545943598092187)
(0.01542109805988106 0.02951841401077569 0.07469894794533051)
(0.001589034553791952 0.001983412819534452 -0.0130747639557719)
(0.001546737187903151 0.0001702754166516936 -0.002954658983635293)
(0.000929201245916415 0.0005042245183223167 -0.0002506115163300133)
(-0.0003438116856039694 -0.02199608801874951 -5.064588072721616)
(0.002019368472199182 -0.01009959607087598 -4.88087437999479)
(0.0001218970008139123 6.26552233398753e-05 -0.000774272388828281)
(0.2086998759896416 0.1330979891237878 -0.02464288887939391)
(-0.008671703261167693 7.911218499964852e-05 0.0002987703709711252)
(-0.03900692123862631 -1.20063128875373 -0.06660481374620814)
(-9.928930272497677 4.698422495587599 -1.966212297005992)
(0.07998590310516789 -0.002587274874378961 -0.02458631978405568)
(-0.001551309676125016 -0.07408217111825938 0.0331578140338829)
(-0.001022056713847112 -0.01048858501142207 -7.944106013499676)
(0.01526862461073575 0.05580132813972205 -0.01685208826939287)
(-0.1498484672907968 -0.2659378253047097 -0.2229804129105256)
(-0.6424896685077021 -49.14352589516307 -1.709265493757608)
(0.5585338376513282 -51.63843081871241 -2.534994159181442)
(0.1038509773131283 -0.05992533399355243 -0.02019845586188242)
(0.02433180221261318 0.008321998999870392 -0.005768930507504218)
(-0.04029642988830759 0.1286824241582204 0.00532150507959353)
(-0.1798407428433532 -0.0470290800918672 -0.1265750042989107)
(-0.04928113851893452 0.07543298949039448 -0.1128344605102762)
(0.0003007308800772749 0.005358855414638975 0.005997983128753088)
(0.01596139920152847 0.006750726517904915 0.01215835595552207)
(0.0611359983968322 0.0417685035007486 -0.0761997596016325)
(-0.001750920957891117 -0.03003230860103905 -0.01778092575227702)
(0.524785546819326 -39.18761743473382 3.917162415614952)
(1.46499459879223 -0.8491116576735316 -41.31346802940872)
(3.400916753723533 -5.998059602030972 -0.01362990344533488)
(0.05336219292821814 -0.1927417457678697 -0.2569666195404959)
(-0.4707825613725697 -2.539112457674381 -4.00163670466562)
(2.52311135499854e-05 -0.001260086387346012 -0.002330043462234655)
(1.302159984837609 5.207146362939144 -0.259902227982872)
(-2.203346725110767 -65.68691952658101 0.06044899669279435)
(-0.009539378404495744 0.005819674517210276 -0.005474253947712283)
(0.006682693114804463 0.01850251053598808 -7.709615013673987)
(1.13662028405011 3.039759705642674 -0.0045840332867551)
(-0.001911873633479741 0.001434680497406091 -0.007642761547695028)
(-0.3124673500816614 -0.8556586048239895 0.4591294382295211)
(0.3057722968353285 0.07620905665319386 0.1824793184495897)
(-0.08060562056362348 0.2334996380379563 -0.007481866197544988)
(1.241496513213663 -0.5119798587964999 -52.80245835278436)
(0.7330236643269035 -1.84081951825697 -2.299070901265783)
(-10.62494910103107 -18.41762438064542 -5.903060614419156)
(-0.8418230688880509 -14.5484089588003 -64.64815217648571)
(2.051932975638714 61.78082393157183 -4.521201471448631)
(0.02531724754435449 0.01608255499847009 0.01339355537087444)
(-1.449229006619033 4.013004029764327 0.06605148119517776)
(-0.1241403077499438 0.02082292729685859 0.09416947997145925)
(-0.009492316934979875 0.0006496928939277984 -0.00478005999939678)
(-0.06242476681910852 0.08481735270295515 -0.1120608548401694)
(-2.585652993944292 -7.258299748101227 -54.34496556893171)
(-0.4922046117349828 0.02959930304540723 0.1849009047334111)
(7.323318891569986e-05 -1.150139705914323e-05 9.094084360060043e-05)
(-0.1798766784611946 -0.06808403594149672 0.2692053039600088)
(-1.300240760633396 -0.6798462277903232 -31.75259110476506)
(0.04679706641181301 0.01057657717681319 0.004434536540141719)
(-0.04035933845868067 0.4529849298595782 -0.4453510068166391)
(-0.1595791564184507 -0.2155250905182902 0.3915062325917358)
(0.1299101212539227 -1.794612383580581 -1.30953834772722)
(0.008203885337133898 0.08156252894515509 0.0007477642624596076)
(-0.002734403638114619 -0.009210720390111199 -5.724015440079397)
(-0.5364826659136706 -0.6182571889155798 -0.07089465304313992)
(-0.01386801973442604 -0.008359101780028643 -0.004930863616832502)
(0.4800384154969992 -1.713748979450413 -0.6003315425019451)
(-0.1774600668782722 -0.1513237525398491 0.05818313651433397)
(0.01204437660204559 -0.01361625333811669 -0.01122053405625995)
(-6.178484365383305 -0.560310825786647 -0.1635666377550317)
(-0.2121355833060565 -0.08457125786193881 -0.3603835108649299)
(-0.0003872507961613829 0.0005545724843534601 -0.0004510322504915286)
(-0.0003012885051559828 -0.0004824931904041338 0.0003570867910423445)
(-0.01981962580505292 0.002902277281473006 0.03560286598798143)
(0.1150644576306387 0.2895681418106889 0.07815682977720978)
(1.514857700968548 -3.955669173073139 -0.4222225228747277)
(-0.8226661623908844 -5.257273989371749 -0.09035349101699558)
(-0.1853358890880133 0.1322564177551559 -0.01628413425745167)
(0.1248680857216693 -0.01064991264083896 0.1402934829744203)
(-0.001000536810118941 -0.0003397303220776305 -0.0001218350508682659)
(-0.03963810264080595 -0.04529941255928062 0.02557970273443048)
(0.0879091676795196 0.1179668853343419 0.0614648217257449)
(0.08539902918458772 -0.3134501707742285 -0.1364780619932462)
(0.025456567824127 -0.006077739904721206 -0.01120225136659081)
(-0.006587627908772719 0.02026533988036793 0.018232174568573)
(-0.02851946646113154 -0.02556845597481822 0.009246604095312978)
(-0.04113535780748756 -0.5189419389984506 -19.59968320135754)
(-0.002635751650518192 0.001054837290314648 5.331813131553186e-05)
(-0.2347641717243645 -0.05907041150627508 0.1548428046659258)
(-0.0011577541065348 -0.0004401827443849719 -0.0001008840625959962)
(5.520239890462108 0.09870292837945183 -1.667611635572243)
(1.613841300830372 -2.221241302929691 -0.2395246736673373)
(-2.364499766406802 1.400008750252565 0.5394134493463663)
(-0.2326497018757502 0.01084376318636223 -0.01635621527196834)
(0.1373062444749617 0.02575232858155435 -0.04372929747727105)
(-0.002715560911025955 -4.077603908847737 0.3635827895218779)
(-0.00661772834741322 0.002636120782298432 -0.001749845764122619)
(0.4560719485756029 -0.1854606437964863 -0.3873480790162306)
(0.9426781120812225 -0.3917800635150985 0.8276199235804367)
(0.001085506839923443 0.001613678331061365 -0.015127979935179)
(1.267777718001209 -0.03502511929041435 -52.07862679473664)
(0.05218780702805072 -0.004117515350480321 -0.02876427911169511)
(0.002232983787695013 0.0005800037927799711 -0.0005880657799201772)
(0.3015409969146038 -5.13374367399444 -1.656481994014528)
(-2.385397252930885 -3.170552243525003 -1.027917088149386)
(0.02814709251953009 0.02156883624031061 -0.02872458366077308)
(0.2046043391700904 3.865874336070804 3.344119699086751)
(-0.0241784720227353 0.0008879350488432379 -0.00710801898528514)
(0.01711589128020927 -0.006989832336313099 -0.006871486817066777)
(-0.0006584541765313669 -0.001139720749793194 -0.0002639769992530596)
(0.001674081122277517 -0.001348139309524951 0.002114888110641446)
(-0.0007719121070884563 -0.0003575701215757562 0.0002121139700930486)
(2.910946448897098 -1.839935937369457 -1.988393266820319)
(-0.4981718772137318 -0.2805781854105618 0.1307775473138063)
(-0.005314929003840781 -0.009386196608332838 0.0005209078556982184)
(0.2398749522616375 2.832540817209523 2.50608966715865)
(-0.0235936561875949 -0.01914632165953247 -0.02455106265639871)
(-0.09897281227816737 -0.07360916965785913 0.1308441131976973)
(0.01063192152515565 0.06696120301860869 -19.45474038305012)
(-0.06942933848865972 0.1029136910767287 0.9605441487062951)
(-1.050223666793547 -0.8962786438633632 -0.1488575831360361)
(-1.274601114914354 -2.200019810296264 0.4224663075763236)
(3.311579392187699 11.774036080215 2.498567581933925)
(-0.3047879758758613 0.3288376248628129 -1.191832531037547)
(-0.0231893935362295 -0.2138870294770667 -0.03047782332835722)
(0.8619082508008296 -4.425343678391243 -9.498119639889238)
(-0.003741147577986062 -0.005954890020163691 -0.01586315953349396)
(0.05480583907957925 -0.01605155622957567 -0.01387205139442665)
(0.7681248681652859 -4.347197872882476 1.449086676543118)
(0.142243250350064 -0.001643539958130644 -0.05065013156265964)
(0.3396752670630336 0.03994922957493381 0.04369398484310226)
(-0.02313842791766494 0.3153844536656281 -0.04463649730586922)
(-0.04719487225612567 0.3694464832125174 -0.2051471100669121)
(0.00128511135827053 0.0005019099227499175 0.001726684060983061)
(1.879522978136869 -0.4563196481765714 -0.9569873597755886)
(-0.002604510331946084 0.0007853681749828489 0.0005703393240036837)
(0.1194827719759523 0.05061791618961485 -0.07222888596266733)
(2.554455407934709e-05 0.002337872796953287 -9.006137775362797e-05)
(-1.374744235181936 -0.8327504652435572 -16.54888611632238)
(-1.400925615242531 -1.690250018660582 0.2760447041307673)
(0.697129421842129 50.04947902003314 4.021553163770576)
(-0.07869277086316777 0.0368039210477856 -0.06996725759682569)
(2.25797435236113 -8.665480090029982 -4.089722800294696)
(0.6823145179663705 -0.2205591773323654 -0.5407557079973206)
(0.7513051130850965 -0.2851720070464394 0.2804444642011837)
(5.011682055164663 0.6628714746980529 0.09981968174984712)
(0.8688417151032845 2.973487616827394 6.955043871893212)
(1.661480448035598 2.13190192676212 -32.36827940739802)
(0.1775225719300982 -0.9314278318346045 -0.1586849749630343)
(0.0001164708653055886 0.006480333984769182 -0.002162428150978541)
(-0.06373880796136321 -0.00115439905872243 -0.008150870059002044)
(-0.03066957879695254 -0.02061055317769677 -0.04945956294663126)
(0.02021865424693028 0.004698105672796802 -0.008351149979009341)
(0.0002452726579879669 0.007747653877958355 0.005682495299038467)
(0.007702571948629734 -0.01208195750002437 -5.532682444775261)
(0.0004316585563918368 0.0004639633459499002 -0.001763855077042976)
(-0.0558161994600258 -0.0444861671540201 -0.01318862759250984)
(0.03043110997936505 0.2426918174098903 -29.39507230224665)
(-0.0009394321693695052 -0.002824285628302759 0.002660945707142911)
(0.02802249133386291 0.009561979600593823 -0.07387467836000904)
(-0.004692144228038798 -0.001554284409237861 -0.03639085869223432)
(0.006674340750433005 -0.007068877066105834 0.01294082406113131)
(4.666906730608726 5.056682506669082 -4.772408611085616)
(0.09053164332470021 0.1229886145853587 -0.00720620371658488)
(-0.3798074345567949 0.04190193644827001 -0.08275873791400321)
(-0.01742700574011441 0.003151003798369984 -0.001240763884655868)
(0.005637836119178464 0.002580911316284649 0.03613294490608779)
(0.001541114816268242 -0.01105453257247746 0.02178018980987569)
(0.03322210775928382 -0.00782328656380853 -0.01359109764320654)
(0.001401990336701065 -0.0004350603239808267 0.0002579450616189534)
(-0.0004823468420400414 0.0002750716235797833 -0.001592143102063995)
(0.2932644056691135 0.2941195545269815 -0.06919742484194091)
(0.003427937996249842 -0.002201501715746534 0.004941230277305683)
(-0.05830317341823301 -0.03220829080574139 -0.02616407868688525)
(-0.0005124681376168271 0.0002452199929145365 1.516767077368773e-05)
(0.005978244254277494 0.01457776272809767 0.01945440046332941)
(-5.649130176616772 59.48160086675766 -10.09988075723481)
(0.1033486906278575 -0.194069645502933 -0.333171643104644)
(0.0007365477361940904 -0.001156947196845264 -0.001306699299595055)
(-0.01003353227380486 0.006200926287285503 0.002119780829849108)
(16.87542971041305 64.59970769857864 18.88441451581776)
(-0.01366184821973567 -0.004996063180922408 -0.03640657698236018)
(-0.005220764788723251 0.009512449755709342 -0.01146708097032163)
(0.185197817285967 0.01639362638916118 0.04039856713460927)
(-0.003494436266506184 -0.003290843990858063 -5.004488344097041)
(0.1044425083916984 -0.2394554643012303 0.2896598355717422)
(-5.847339211755935 5.746478618608537 11.69235942709724)
(0.7479030647685327 0.1182073004064295 0.1359540337434116)
(0.5073474859431009 -1.905186956375611 -0.298090940344777)
(-0.0003106988166799469 -0.004008556515067864 -4.813777083973742)
(-0.0008113035552244471 -0.003347063726206453 -0.00334281968995678)
(7.638000872134716 81.92094534376523 5.534077879563712)
(3.784732100342794 59.9487340337366 -1.328598554038787)
(9.357571305791592e-05 -0.01154926845746336 -5.016327734015507)
(-0.01530499551587061 8.297094913945241 6.439601198756397)
(-0.0003393501727739358 0.003799767470666463 -0.0006474004510460356)
(0.4064998512425938 0.005976936539017305 -0.1588272190731542)
(0.1804139535538533 -0.01459747713480024 -0.03488625146744222)
(-0.0001710252567830864 -0.0001554381596712724 -8.667371460547048e-05)
(0.8046801062339495 -40.58059958998891 0.395852441327457)
(0.1623445618248364 -0.05510465058108652 -0.06436105603131226)
(-2.514592189415154 -77.86524087717616 -5.692511358735237)
(0.07319853706039808 0.000500935045581765 -0.024025370025801)
(0.2594607796807449 0.05458422245499923 0.01882495922055644)
(0.1495388293695759 -0.2229041693762178 -0.1333139506507934)
(-0.1185876693666106 0.4102885113812597 -0.1778729163869446)
(1.084987614907648 46.52258182572842 -4.118147328762065)
(0.05367480737229594 0.3924703425534359 0.2559375621325786)
(-0.02513851678894135 0.03763336765971937 -0.007458425791699204)
(0.09440274862971099 -0.1186109926111366 0.5884142688425332)
(-0.2400656739287729 0.2991404172506817 0.03124418801798494)
(-0.01401077263986279 0.03566966502655322 -0.2160713382122901)
(-0.003125761845992467 0.0003379492493219881 0.008017426137280785)
(-0.2862799907750946 -0.3477396172885345 -26.17345561844267)
(-0.3797499300024825 0.126699331503866 0.3576222468280332)
(0.00207555923442038 4.859647530936666e-05 0.0001893914078670551)
(0.009492452829720567 -0.0004891918509668668 0.001939488961646309)
(-0.09307755230541186 -0.03505150911976337 -0.01485515923419697)
(4.947717672954798 -0.6159198372680796 -5.747388516672369)
(0.003111972869575765 0.0007921183659781875 -0.006723056412479458)
(-0.2317448355803202 0.1919821869733515 0.3890080487700546)
(1.010710900507376 14.80491504963957 -3.906726188180628)
(0.5336607024345386 3.74424716013082 -0.06942345229683955)
(-0.0009566602173174128 -0.002086029987565813 -0.002004362444344282)