/*--------------------------------*- C++ -*----------------------------------*\
| =========                 |                                                 |
| \\      /  F ield         | OpenFOAM: The Open Source CFD Toolbox           |
|  \\    /   O peration     | Version:  v1906                                 |
|   \\  /    A nd           | Web:      www.OpenFOAM.com                      |
|    \\/     M anipulation  |                                                 |
\*---------------------------------------------------------------------------*/
FoamFile
{
    version     2.0;
    format      ascii;
    class       volVectorField;
    location    "1.5";
    object      U;
}
// * * * * * * * * * * * * * * * * * * * * * * * * * * * * * * * * * * * * * //

dimensions      [0 1 -1 0 0 0 0];


internalField   nonuniform List<vector> 
19632
(
(5.021440638061205 0.00572950839637579 -0.002666502687128073)
(5.000305595379263 0.001844007003854135 0.001652495612670399)
(5.000482047081586 0.001566623453238797 -0.0009562046109350118)
(5.072669271779046 -0.07023781394798191 -0.1215175121379738)
(5.000739503102922 0.002954479523612566 0.004847124293477143)
(4.999038119969935 0.002269966116370551 0.001627167032487727)
(4.995394624431372 0.00261878454216138 0.02508451761471372)
(5.000056075467088 0.0003692427495495787 -0.0009053150658751126)
(5.000367571306566 -0.002647435266935971 0.01472829032160539)
(5.041258805547541 0.04178220849092557 -0.005498028658406141)
(5.044933810087302 -0.08056536384944805 -0.03158698413197628)
(5.006550236378328 0.0115129167812088 -0.001018453836742231)
(5.000716678407348 -0.0003897534173660537 -9.045011654072405e-05)
(5.001728651359956 -0.0009016975469311031 -0.0002368971653209997)
(5.021359730616849 -0.02476019770445896 0.00696316070346335)
(5.004179548995047 0.002241590396718255 -0.00274370335886822)
(4.994564646581908 0.003284962561688201 -0.003198612789547758)
(5.010034254089541 0.01394588446902496 0.06472417860579731)
(4.999634428958519 -0.0005353063319782136 -0.0005925241544730502)
(5.002348860943784 -0.003308394970637049 -0.0005286759544371902)
(5.020425366041771 -0.008149901765370955 -0.006196125950423488)
(5.264938473964428 0.2249855919182819 -0.1343226150090955)
(4.896835127836049 0.01452606054874157 -0.1115199126202355)
(5.000918951227696 0.001908929830335617 -0.00224756017713226)
(5.000784744597668 -0.001439332554558703 -2.050543655221313e-05)
(5.001283721270324 -0.0003240839345862569 0.0008831692971099538)
(5.000158914619623 0.0009728579125406604 -0.000199560887788279)
(5.099258846192895 0.192271133380267 -0.4243134811357485)
(5.018598015707178 -0.01001333966379024 0.005597780955263646)
(5.001082918713878 -0.0006670567243228092 -0.0008535829662960208)
(5.000322280166002 0.0006858201329884958 0.004078818858488946)
(4.999550676250327 -0.003585082314722244 -0.01147394730668089)
(5.063024333169479 -0.02212822958746055 -0.06164115610588222)
(5.128159381861903 0.2162579781242681 -0.2842179550710531)
(5.001006578107958 0.001283211640796188 -0.002593048206963032)
(5.001000159519111 -0.0004484788859652138 -5.473781821919279e-05)
(5.001177866958026 0.005929160457735537 -0.006309408619935065)
(5.000467256199395 0.0005761407897529119 3.352329099938939e-05)
(4.999973540152058 0.0008632677927275987 -8.829984017134264e-05)
(5.02632627396999 -0.008509031691071147 -0.00326534447651759)
(5.000837483947081 0.0009871416966204716 0.0005752587001172849)
(5.004747052788969 -0.008023430273347494 0.004055185008378611)
(5.003548158191503 -0.01039875826463127 0.006260621813138354)
(5.44636856601126 -0.1018218098590395 -0.2018632167910846)
(4.999470525251301 -0.0002375660673966089 -0.0009669042101534271)
(5.0005186326285 0.0002554868143463364 -0.0004311287457780491)
(5.000266251432244 0.0002463655150025604 -0.0001818903164378629)
(5.00060926963298 0.0003632777757678868 -0.0004253428310909074)
(4.994309523606112 -0.006282324873304235 0.004702372631553833)
(4.997519110808842 -0.01402129855576272 0.01390683869662884)
(4.999543172637024 -3.053961063907332e-05 -0.005449859324806512)
(5.003464886696315 -0.003089713878743528 0.0003176097634155754)
(5.000008186076434 -0.0001994808965451252 0.001785184335087868)
(5.002134559634088 9.92012195179044e-05 0.005541428678744497)
(5.001368571483463 0.003158611716744567 -0.001511824559429261)
(5.001660678473595 -0.007376127741452704 -0.0001819208731197396)
(4.999303545345946 -0.001072288178157124 -0.0113936634051716)
(5.002114390992441 -0.00178347752732135 -0.001697122053000608)
(5.001183366937224 0.007026120367719273 0.006025034168294735)
(5.049007023471606 -0.02800862563148315 0.01433216673242065)
(5.000570477133018 0.004617159385497779 -0.000301580451459459)
(5.000117501919667 0.0004521098733645398 0.0004048176819781074)
(4.878301112562052 0.1418503820204656 0.09638769733394299)
(4.342320712540172 0.7584009235086701 0.3640758359134954)
(5.000688090494685 0.0004306492556525011 -0.0003765853490953249)
(5.11079608926518 -0.03203248758419903 -0.5895715533772593)
(5.262774695151885 -0.01147936952357855 -0.09096919088306572)
(4.999642185014144 0.01093879331030372 -0.001574810817985765)
(5.000545749306776 0.002356323555881035 -0.001573823506307006)
(5.005189574066905 -0.006909648234088727 0.003082003709263298)
(5.015223147900161 -0.002378857588439379 -0.007934587710791023)
(5.001139292170204 0.0002844872614262245 -0.0009659260484078795)
(5.000456130718677 0.0002780993924006829 1.804947798771297e-05)
(4.999051524863607 0.008178868844135418 0.00162601557113971)
(5.000408000506635 0.0004044692912955045 -8.356589998026081e-05)
(5.000446479520424 -0.0002973128030915294 -0.0002320313593826697)
(5.000069979114645 0.0006689535322496747 0.0003186821902306257)
(4.875671746054016 0.3565678864414836 -0.004704190686262785)
(5.132126256887121 -0.02314709803654749 -0.1200716274824316)
(5.042710423478998 0.007996400748570455 0.02684054684128595)
(4.052884576043432 -1.243366997714343 -1.195805256014219)
(4.974200050939255 0.3729453858988405 0.2519090251505274)
(5.001813472385469 0.0001935500474169804 -0.0007275929191557669)
(5.000880231657174 -0.0001702779008854367 0.0001210091988300714)
(4.998357940609091 0.001902043573779248 0.0009235134296665234)
(5.002785981022121 0.01926833608005122 -0.01464079178787113)
(5.00052334653937 0.004356642676244902 -0.0001439593888276106)
(5.000305067185649 -0.0005507725630370772 -3.46246296408783e-05)
(4.996448486661862 0.00524597203602523 -0.006666198249045594)
(4.987786511606022 0.01805771903794863 -0.02786433960312742)
(5.028867645291808 -0.008411046681492342 -0.1007653978276011)
(5.000190311143685 -0.003646683017707173 5.67637001836213e-06)
(4.995434107339229 -0.00848186991001142 -0.01077614541399363)
(5.026989836021333 0.01457472831113512 0.02713897123759106)
(5.000323248015722 0.008429951467467348 -0.0003068004117246668)
(5.000514405312132 0.002570915189567902 -0.0058401029954709)
(5.002891945564299 -0.0003594403265630292 -0.00121029345501437)
(5.001124595122417 -0.0004658005278372864 -0.0001393298439116482)
(5.000276651337231 0.002239419253194653 -0.0002791376192730283)
(5.000132368355484 0.006240307190335977 -0.0006438939757644501)
(4.672018939849369 0.5372257683525451 0.1790777300135065)
(5.000470774364399 -0.001667486073279053 -0.001924062537287698)
(5.014872532040795 -0.007112311903856986 0.001673838869448223)
(5.000080448696662 0.003467190562233041 -0.0009814957600789828)
(5.036391018031138 0.09170028010865519 0.2364652021982576)
(5.080944476167496 0.002527342618090048 -0.0306797252771347)
(5.116123116968735 -0.03926623348962349 -0.1044699888519201)
(5.03379112667486 -0.01189212823363188 -0.01793818790812776)
(5.00017608446215 0.002336787353666837 -0.0009066511702148107)
(5.001964286590341 0.005189214597063686 -0.001284728140104031)
(4.951976499268978 0.2628070451472197 0.3160163768125305)
(5.000820293102739 0.002445615011938955 0.0009383307516104314)
(4.999413666930639 0.002459625583469773 -0.002596797338306017)
(5.164225200859938 -0.06531501063266168 0.007855869908510477)
(5.001826134521175 -0.003694761889577365 0.0008584415113557109)
(5.03382080194237 -0.03987371480210608 -0.002398462860037755)
(5.073842483448259 0.06644798399690247 -0.759970462609614)
(5.064021745849314 0.154630041287471 -0.05297976870263897)
(4.999981063322309 -0.001023793611393832 0.003019734553513605)
(4.999973160760514 0.002173058619989783 -0.001127543398781209)
(4.998923210584454 -0.001109544797541655 0.0007647958217939103)
(5.003578288443379 -0.001456368116324228 -0.00422969352803153)
(5.000525013360363 -0.0001498797927789873 -1.650263525544796e-06)
(5.000216032026624 0.0008746056894318983 -0.0004655595077411729)
(5.159920665560997 0.084330615934335 0.04528605692348313)
(5.122170893978454 -0.005856825693858703 0.01305584264091472)
(5.000422549723331 0.001833297912675578 -0.003462573035468654)
(5.00882391889413 -0.0007496592147214927 -0.001643956445243533)
(4.999118033298447 0.005251444602308363 0.0009496057966935037)
(5.000319209260137 0.0002669846812767092 1.648217900747308e-05)
(5.001094254859672 -0.001271977598005716 0.0004146147479152412)
(5.000578012124927 -0.0009371690798451036 0.001457293000371568)
(5.052992948108106 -0.02760858140163707 -0.01926266038917662)
(5.000277865835884 0.0007950025201121596 -0.0001235321003635304)
(5.010131381135258 0.003139273679298274 0.005067697586696015)
(5.022926788604743 0.03261311967954604 -0.0470375262926684)
(5.007366909842698 -0.002323688436864276 -0.005057515034592035)
(4.997412574628811 -0.0003607130210984463 -0.003713737020267996)
(5.00058739203688 -0.001944956404053209 0.002779560446139603)
(5.004554191641562 -0.008758730690290808 -0.008905241017425222)
(4.444121030677382 0.1151686861920787 0.2138506373913833)
(4.988528683861807 0.501215496702572 -2.347178485055321e-05)
(5.370772816832369 0.2575079352357356 0.0131846408315295)
(4.147457314301434 0.3466490182395887 0.04021975044661911)
(2.890511164282299 -0.7533571960212941 -0.8064711100018279)
(5.000135646510503 0.0006594607315259391 -7.682872879372078e-05)
(5.009570288320005 -0.001412079381337691 -0.00489515103000198)
(4.53581455479752 -0.220276981295256 0.1082344467551913)
(5.018287258902292 0.004983615104451958 -0.003112997982256627)
(4.999566526886316 0.0006379300987932288 -0.0006811707519515604)
(4.999465102498819 -0.00186072617481827 -0.0007534581667310682)
(4.998798464760961 -0.008035061719201523 0.007145422804383652)
(5.000297915056339 -0.00170443016295485 0.002163019253520408)
(5.001374310251062 -0.0001013451573292709 -0.0005188949821852822)
(5.054281485518142 -0.01971663387910441 -0.02354974174988403)
(5.001569966268917 -0.003099640227813286 0.003659012963933189)
(5.000092575951615 0.001107550254776086 8.442631029784906e-05)
(5.000383850436122 0.00500582785060038 0.0002543657016381706)
(5.013242395154354 -0.02773610251105334 -0.007068483353528037)
(5.078652996228884 -0.06677602691330847 -0.1857685379909757)
(5.03183033142438 0.07153006161594108 0.6241828030891462)
(5.106365822379496 0.2009621361552402 -0.1886067682336824)
(4.602479831292688 0.8499584723099241 0.1705602590801823)
(5.233487208395553 0.2541747006207254 -0.07780120577100338)
(5.000363170294742 7.380395600478209e-05 0.003725658358942922)
(5.003249294456671 -0.005117081711728848 -0.00379529579859304)
(4.99999818941952 -9.686200231740929e-05 -0.00155044277402367)
(5.006279614087313 0.01667081810578549 -0.05274441028519224)
(5.162471923164079 0.2249696275336205 -0.1552776934526957)
(5.000589914172421 0.0027116981526021 -0.004271359372931152)
(4.998596755700158 -0.0005312442485876676 -0.001842217974784639)
(5.013656992208649 -0.004715747385636206 -0.001051612876239331)
(5.007817300624489 0.03049247838367107 0.02098283357197011)
(5.000801056979691 -0.0002868774674622349 -0.001188515718393585)
(5.000731936075944 0.0001970901208561473 -0.0005690647639235586)
(4.724756103551923 -0.06402202064749464 -0.01395989634944484)
(5.000874959775214 0.001113809489594663 -0.0002405955572299766)
(5.015666106737892 -0.006905095012273446 -0.001170717485502077)
(5.001113437975156 0.0004039567976881031 -0.0001933310627412153)
(5.000542149596069 -5.386547756470891e-05 -0.0007139787649773724)
(5.000659526616922 0.0003831290974279459 -0.0001059188069233189)
(5.000663158304189 3.920101554793515e-05 -0.0007544388329860932)
(5.000888207088987 -6.240790236783659e-05 -0.0002104089903635556)
(5.000358263300749 -0.001321418196308572 0.0005891642087885087)
(5.000749005495023 0.005372604960705925 0.0001939856775083898)
(5.00028874657066 0.0007588264641181626 3.271222924953235e-06)
(5.040305651033502 0.0006473100035759041 -0.004391079632219669)
(5.000958859159937 -0.0003474288005127358 -0.0003571288333885666)
(5.000451724857853 -0.0002493140111070539 -0.0006226663814636663)
(5.000622382006447 0.0001588547026707694 -0.0003037546937519448)
(4.998311138521518 0.00133633050377594 -0.0006264748179176112)
(5.029762841269566 -0.007361370461597267 0.009472253317198904)
(5.03264101755118 -0.0208741577056329 -0.007455541165356289)
(5.000924838685113 -0.001103449632116298 3.882018681024941e-05)
(5.000467228711357 0.0009608722440080579 -6.462763139466041e-05)
(5.000150704888611 0.001840504206950211 -0.0007875332294685508)
(5.010202604038877 0.0005211730888985812 -0.001817182246254075)
(4.997339374915446 -0.0655622298182247 0.117778487181096)
(4.999690090974569 -0.001096704840431701 0.001345986431979281)
(4.978862223997506 -0.005447769562805173 -0.01622196009717087)
(5.000854665495622 0.003446738216027265 0.0001874949648434287)
(5.014634752404974 -0.003142125542885158 -0.002451675123829002)
(5.000570371503977 0.0001789010451324267 -0.0001100618970667787)
(4.997966008771873 0.002488058820999277 -0.001091313507659855)
(4.988641722152896 -0.004707914282968761 0.006971553262259546)
(5.002134496862138 -0.002686726112707327 0.001382462253687607)
(4.999783380185058 -0.0007048810680256623 -0.0004009243568814498)
(5.000881320890012 -0.001820472263059189 -0.002524002879016576)
(4.999512702515871 -0.0006190907494705169 0.001990541114055734)
(5.000855526455529 0.0001590505441079853 -0.0004439147037692374)
(4.994328001207428 -0.01152042183561469 -0.007076691538180405)
(5.000397719711844 0.0009438516230852478 -0.0002830042536174635)
(4.999902362035986 0.0009095366591878357 -8.31872838492745e-06)
(4.998269102909433 0.0008190508196236347 -0.007714364205099054)
(5.000384576293316 0.0007697916221411053 6.454323763987536e-05)
(4.998119668062825 0.001465251669077773 0.004647037951893388)
(5.00269006732072 -0.0009359679956041843 -0.006994904296266276)
(5.001030445504543 0.002522340520518192 -0.0003511660413898836)
(4.999862104527034 0.0004504036058982371 0.000671288949624547)
(5.012811197693233 0.0002921694352145164 -0.003477480403079343)
(5.019312345762014 0.05484464318043317 -0.03146857224425251)
(4.998802810640691 -0.0001626705679598778 0.007247725220593244)
(5.000061255362388 2.036357618265793e-05 0.0007150483357037957)
(5.000377094796379 0.0006669543897806175 0.0002447661678648843)
(5.070569293523524 -0.0218778318684152 -0.01597682917175555)
(5.002660238676024 0.004039912582903635 0.003351677656417004)
(5.000287264593893 -0.0002723871567870934 -0.004880968094348273)
(4.997649580313821 -0.001171622564196062 -0.006021980332107907)
(5.002446389640584 -1.853345369317535e-05 -0.002726183584898215)
(5.001320856297726 -0.0001027011778492174 -0.0002056020533604043)
(4.999384607539489 -0.0254971695637995 0.0171785965623711)
(5.002173199141382 0.0002668533582366807 -0.0004495089863927621)
(4.999323663906043 0.0008671218682246757 0.0005202666499510514)
(5.00168208629445 1.716889696135145e-05 -0.0005094354836162095)
(5.001247259888782 -0.009087441848728433 0.002040450811416427)
(4.999490817865851 -0.0001749016375545965 -0.00018435888503208)
(5.000613270190863 -0.0001406066225103282 -0.000457212690973294)
(4.887590049646355 -0.02066446192187092 0.02983993950804774)
(5.018797538909728 -0.006902635552585968 0.0008622691645263638)
(5.000987109847298 0.001891321419445275 -0.008774281079853627)
(5.001358096890192 0.007361509849419931 0.002184887008614264)
(5.765568413102036 0.4233363223641227 0.1033318827560879)
(5.025396157796799 -0.007899349155564662 -0.005501043287771732)
(4.996232574798551 -0.0004755791970041008 -0.000369920386092725)
(5.000957947558252 5.689306669614038e-05 -0.0005359399898396439)
(4.998905159611264 0.004724650601967508 0.001127135763338143)
(4.998831030213608 0.008901406875682413 0.001419961919161757)
(5.026056413606966 0.001565791967652175 0.004555271247869763)
(5.000140357624026 0.0004690285913598904 -0.0001526153364308142)
(4.998718498824218 0.0004384332588676229 0.0005131386453743244)
(5.000421137803008 0.0007684480389221712 -0.0003466976035389092)
(5.000018291525366 3.751835485306559e-05 -0.0006893003149882579)
(5.00165795511386 -0.002029271897898109 0.001021586244309179)
(5.012748119982403 -0.005100747074218537 -0.002618002493958857)
(5.000525011284436 -0.005785983377137217 -0.003061954486673214)
(5.041648235943881 -0.01065563511968957 -0.005145480798536105)
(5.000324547398282 0.0009580647674060289 -2.420768354842611e-07)
(5.01790947535545 0.03141302981058744 0.01928696952529836)
(5.030163805384438 -0.05199579713417955 2.305178980652244e-05)
(4.988629913415465 -0.01686383050584388 -0.003795536850128007)
(4.981355013817867 -0.0152296496303366 -0.01692855541985692)
(5.001126397146638 -0.0005012810617734103 -0.006868879953358813)
(4.999888434008543 0.008482493718644303 -0.0003767589625943397)
(5.001162351704783 -2.355105991788405e-05 -0.0003477417474989736)
(4.99888845481793 0.004723375711132282 -0.00236853121131979)
(5.001179123066155 3.077250499550608e-05 -0.0004071219085104562)
(5.001010011348017 -0.0001180951609513866 -0.0002267884946430632)
(4.999590541297468 0.007560774037295871 -0.005467584383933118)
(5.000639280436257 -4.279900920025394e-06 -2.263906847815875e-05)
(4.999837275506251 -0.0002136681334163874 -0.001268522350207706)
(5.001295294808684 -2.844680252058538e-05 -0.0003393761561636448)
(4.999958699095234 0.001345168905831951 0.0006110180094719063)
(4.999820740322406 0.003204712048051135 0.02437688574372255)
(5.000602100617865 0.0001445151260536146 -0.0005534019289813206)
(4.993259401311586 0.006234586540385671 -0.0006429446897242536)
(4.999026994217006 0.005389355307141646 0.0008828292365143018)
(5.00382272432531 -0.003300296120749561 -0.005784055165911413)
(4.997276642675904 0.0009334324900139973 -0.007156020381025194)
(5.000142767507588 0.00090150532436973 0.000111042385402836)
(5.016401847522955 0.02757900457712492 -0.08064337167721776)
(5.000063073369597 0.0001269482384653027 0.0001607478348842854)
(4.999256987241273 0.001703442651530788 0.05996962592104474)
(5.002369833287228 -0.006242509825931118 0.00140088855911587)
(5.001001538088985 0.000321284632725952 -0.0008134176078833989)
(4.915413346962625 1.19664864081865 -0.006222975979772311)
(4.994449623807468 0.004124045360606923 0.06004966022626226)
(5.002288108610279 -0.001912525997960754 -0.008397998420585652)
(4.999241829469076 -0.005125826467431991 -0.005791079446413885)
(4.984139613813483 -0.01027419733355955 0.007924984200725066)
(5.000583235766216 -0.006435186957226132 -0.0009990589718107557)
(5.000885689586511 0.0002257865847997136 -0.0005695911198869196)
(4.995986392678094 0.003383024438814562 0.002519098467760517)
(4.999338201030532 0.0005401767298433642 0.001004063050602763)
(4.999524678747604 0.0001581364375015967 -0.0003133285151174846)
(5.000064713318094 0.0006724513685622669 -0.00123036609622252)
(5.00045002005597 0.0005069671066102616 0.003451987232572799)
(5.00653495862826 0.002474624224901887 0.0001747297459346314)
(5.132328645103716 0.03081590538864716 0.08153679592229106)
(5.000602637052256 0.001713320960918426 -0.0002034917079692379)
(5.000537735259085 -0.001141706905024034 0.001060219801419864)
(5.034555364998225 -0.03251215191878714 -0.004075532261790069)
(5.00234575093283 -0.000865159170879224 5.496991717070772e-05)
(5.000493987369984 -0.001028211105765794 0.0008176045483870456)
(5.000564686037039 0.0004287778893978247 -0.000374808339771442)
(5.040493018711954 0.2225014778119009 -0.2881395387697332)
(5.006065439716994 -0.01128201530752113 0.00274973031432815)
(5.000660572109171 0.0002504059052284732 -0.001064432020375765)
(5.000335875070671 0.000514175453191832 -0.0002960632404075917)
(5.001178010625159 0.0001642728759216157 -0.001003655756663388)
(5.000309759366004 0.0004951183221078879 -0.0003602836213335443)
(4.44627747041808 0.1837741387990609 -0.326488826930144)
(3.985803766010307 0.06768266635126426 -0.2741517390127467)
(5.101433523879145 0.00784667400904197 0.04342472293982937)
(4.996597439766536 -0.01032594662842096 -0.01139519880997833)
(5.11231119524659 0.002418023686123802 0.0509656622549716)
(4.113494885498152 -0.1195527324521774 -0.2476994156236742)
(3.910134117721363 -0.1711544569962628 -0.2864704531831973)
(5.000312018582125 -6.224379429241513e-05 0.0001616312965058225)
(5.177328580459518 -0.03541114026670511 0.6255416696053433)
(4.945102318049003 0.1125890319439098 0.3815672782794303)
(5.000845457213957 0.0003141438280378722 -0.0004248904652057813)
(5.005119933934067 0.005653610834540205 -0.006743023496531494)
(6.485819526506166 -0.5095952141580314 -0.5815852948425416)
(2.983120383086861 0.9062123923750923 -0.2761104701623974)
(5.000629609554076 -0.0001333844298372664 -0.000183194998020871)
(5.002243232555038 -0.00684405216511507 -0.003959174115906702)
(5.000770471819934 0.0238751463612993 0.009700501281912174)
(4.890505246899187 0.5693847245699158 -0.3783239621872592)
(4.825055407601284 0.25397878652848 0.08689991041464365)
(4.942517089639022 -0.02491376720880088 -0.006630465684463975)
(4.999660387811398 0.00284421225649335 -0.0008392640932422315)
(5.00025426493248 0.000894752328652497 -0.0003944856704355342)
(4.999823731508409 0.0006995887400184209 -0.0004592355873497592)
(4.997410243973738 -0.004554179515305084 -0.01325469985305453)
(5.002098335845758 5.132267789572869e-05 0.009971336431608793)
(5.000253150661276 0.01038690988147412 -0.01939381672574209)
(4.991413623336361 -0.00641153031104762 0.00804954236383023)
(5.131171391694451 0.01837720590386883 -0.3266372889968283)
(4.995445420774282 -0.003228288585524459 0.0007137098211337417)
(3.928876523259886 0.4923578309484322 -0.1786280587838122)
(4.999729256999122 -0.002745728710322711 0.002148842639628813)
(2.816582236819205 0.4546443798431056 0.2022248916523401)
(4.061654213843931 0.09159492230208327 0.3834735584573166)
(5.007053119595998 -0.00249271919587854 -0.003127034606367862)
(4.282875019724306 0.08463747243461518 -0.1129863584026271)
(5.005783640623943 -0.001989399884313342 -0.001160215726888902)
(4.558422237519276 0.08751272206763448 -0.1236355013781011)
(5.004425278601218 -0.01263465051834477 0.004229385295344746)
(4.747713046520804 -0.07409585826037189 -0.07397012936343583)
(3.404590477295649 0.3307201788019921 -0.1710447848120829)
(4.998223612212549 -0.001296774444797713 -0.001922934361434139)
(5.000769531416013 -0.0003218190425354596 3.585183918211356e-06)
(4.99198455760314 0.01451024739354212 0.07388766366274289)
(4.050252975177709 -0.5683848366189349 0.05364606439751251)
(4.990728044174758 -0.008350764337992171 0.004669570843404325)
(5.000365084630218 -4.593909283174831e-05 -0.0001309651393794735)
(5.000259066605167 0.0002286614265207493 -0.0003611381774278184)
(5.000167051325654 -0.0004481654309307553 -0.000398107399380619)
(5.00130112525908 -0.0002651053119130186 -0.0003221011711949886)
(5.001454130770525 -0.009402269077474209 0.01572289698472392)
(5.030333343497907 0.06215278934585439 0.001781804292251994)
(5.000342499447409 0.0004701532903011782 8.591345965467118e-05)
(5.027326299326896 -0.01790975516967612 0.001132213444021805)
(5.002274579945477 -4.46812734763445e-06 -0.002632264411258113)
(5.006171986455787 0.03732019608067988 0.01852756241265912)
(4.243382223095265 0.05641708453920737 -0.0945700870144401)
(4.998994910717594 0.001232548799598237 0.0005862134765637358)
(5.032063437113119 -0.01525870395000624 -0.001399607716895137)
(4.996612416801995 -0.006274706669468164 0.0002030865764873944)
(5.079963280281194 -0.01111612002252736 0.09248629655243749)
(5.01774512610044 -0.01237103744829033 0.004511369777388346)
(5.000713956366838 -0.001816605640988212 0.0004797859399989996)
(5.042805396141198 -0.1423625238854266 -0.04539542902923889)
(5.000003433760534 -0.001278817952698612 0.001755079950772475)
(5.00001269869105 -0.001931685289184459 0.001372566254521757)
(5.007824388181024 -0.001797602066122211 -0.003063604422991243)
(4.464044090418191 0.4934450530838075 0.3365925559176338)
(5.000032934974333 0.001140141228525667 0.0003550611142828937)
(4.999622102082381 0.000997941622794299 -2.730128984299328e-05)
(4.99999242696571 -0.002058008293831597 0.001933576628021265)
(5.00643911176829 0.04719654612575004 -0.0420824363991619)
(5.000898953146189 -0.0001196473707705709 -0.0001423800287399745)
(5.001683167484272 0.0001306291285559967 -0.003421496052572452)
(5.000510763168854 0.0001175840768463987 -0.0003169550649599905)
(5.031257674701841 0.08560023779625164 0.00044044313400059)
(5.000908346092141 -0.0001760680721703226 -0.0002575330593117413)
(5.000228514252284 -0.0002865706752620309 0.000297170026734856)
(4.994935552220869 0.0001815168135890246 0.003896415484148163)
(5.013217880365683 -0.003171129135598069 -0.0362035676530961)
(5.000822080156666 -0.0002187221994781485 -0.0002705313174209823)
(5.000850502652461 -8.358662935927272e-06 -0.0004115220709114126)
(5.004944167321302 -0.005081955790812074 -0.002949615253528649)
(5.001381915311724 -0.002084186506120529 -0.001113615462197141)
(5.000140732643022 -5.851398976592502e-05 0.0005017414885769858)
(5.00105354396868 -0.000871539926050459 1.180063056629846e-05)
(5.000883514235779 -0.00111808070824073 0.0001496760485777009)
(5.000839231517451 -0.000476895827347776 0.0004314941174101192)
(5.000843987034446 -0.0003962744984942353 0.0004722576047845304)
(4.99988412847321 0.0006774208029442822 0.0001181341524780399)
(5.000983988284847 -0.0002696894990213779 -0.000211951124865366)
(5.001842414929218 -0.0002268676158453399 -0.004106982993660918)
(5.001536408254953 -0.0005610260834162641 -0.002164200648107006)
(4.960452441246884 0.01177322819025369 -0.007200553439648394)
(5.001747399675346 -0.0007985247060229295 -0.003873535872955257)
(5.010678374796757 0.001540005862466693 -0.002740550648476889)
(5.0031414813327 0.001080163068833494 -0.001822781286002648)
(5.000522724968769 0.0009045017993695865 -0.0006943497630878148)
(5.000258167783314 0.009449746529237676 0.03851814426894731)
(4.632753273468136 0.1891321764846318 -0.2382803411619338)
(5.000716937466401 -0.0003448763991318046 -0.0001215988884008212)
(5.02930052483113 0.009597066240809303 -0.01840829830119213)
(5.000864660515512 0.0002702178519842574 -0.0009989740776868206)
(5.057464783779468 -0.05419339507759029 -0.008718391854554308)
(5.000630280745643 0.0003882102379987961 -0.001723778981478818)
(5.00037685212427 -0.0001509970196725299 0.002346578685561026)
(5.000426380124791 -0.00287550835139185 -0.00344265951948893)
(5.002451930696345 0.0008350006264401331 -0.001931570952686086)
(5.003432784368678 0.0277836781033945 -0.0150208968518181)
(5.001867635341376 -0.001589645003816346 0.001542838924355732)
(4.990948176049458 -0.001515056470700977 0.007099026830880459)
(5.002306797714386 -0.001107944503748049 -0.001644771214640148)
(5.000562566078555 -9.825389780800009e-05 0.0002342129157265731)
(5.000474437843814 0.0004296600639824557 -0.0002048330808081662)
(5.036344054937207 -0.01510853461043102 0.06831050915919198)
(5.000783691176222 -0.000376090380234873 0.001053357003983012)
(5.000545214042754 0.0007707146807256771 -0.0005394685961227464)
(5.000711270298819 -0.0001827619118180354 1.613520857810922e-05)
(4.999721972093659 0.0003099541649303175 -0.0004957191707657396)
(5.001177277723198 0.0005751481601588404 -0.00066606869916198)
(5.065218300330404 -0.0433700079289411 0.05397057260693226)
(5.000642187834572 -0.0002136943045073725 0.0001458571140147537)
(5.000508720895714 -0.000230015781180973 -0.0001169160203902137)
(5.000658796421191 -0.000644328506985809 0.0001742662767802817)
(5.000791479295663 -0.0004040130657803506 8.786066970802756e-05)
(5.000715932015065 0.0003941317630955469 -0.001006193935533737)
(5.000766672804548 0.0005328565537700769 -0.001084942387587155)
(5.000740109494068 -0.0003273330992550839 0.00017424331214092)
(5.000810510072538 -0.0005066244438264615 0.0002963845153387844)
(5.000657619169589 -0.0004366412297395187 4.227923541853172e-05)
(5.00066898691166 -0.0002063151321996995 0.0003924236445731824)
(4.996524012183497 0.004533714967767372 -0.007749351012458072)
(5.01101415729204 0.002517111214830731 0.05113781065222086)
(4.997953649008409 0.005186274897093159 -0.001174837464058555)
(4.995039466685103 0.0009157695550444974 0.001369468546648859)
(5.00935989699374 0.0009009321208801472 0.004326186815289687)
(4.996057727959983 0.003427856744118105 -0.0001608032335130745)
(5.000771167846702 0.0005319777979339202 0.0002129636386248541)
(4.993995451741704 0.001773306833396283 0.004231401476065896)
(5.000497736000294 6.578684191410982e-05 5.593162271528573e-05)
(5.000329391936708 -0.0002148268233909068 -0.0001199847263242754)
(4.99508351407373 -0.003212477413497801 -0.002075212905715526)
(5.000079693266706 0.000558683274439783 0.0007823415383438189)
(5.000606764974715 0.0004296890798522786 -0.0003910515329506712)
(4.999617246504704 -5.021640836454524e-05 0.0006234027263542547)
(5.000570718451258 -0.0006338047532489665 0.0003349197711770965)
(5.002405466407008 -0.00294234076810409 -0.003615407180356771)
(4.999680860109813 0.0003449574955806368 0.0002116840432048492)
(4.999118988635301 0.003638708296933074 -0.001321906676054479)
(4.99937539898333 0.005791328570456794 0.0007297139972087308)
(5.005882923653158 -0.006847021487433742 0.0003403920060123214)
(4.993317859513327 -0.0002718468978162287 -0.005255575418490971)
(5.004849739024607 -0.001065179514424451 -0.002620771827179187)
(5.000708565232524 0.0002735376163515383 0.0002445690068858877)