/*--------------------------------*- C++ -*----------------------------------*\
| =========                 |                                                 |
| \\      /  F ield         | OpenFOAM: The Open Source CFD Toolbox           |
|  \\    /   O peration     | Version:  v1906                                 |
|   \\  /    A nd           | Web:      www.OpenFOAM.com                      |
|    \\/     M anipulation  |                                                 |
\*---------------------------------------------------------------------------*/
FoamFile
{
    version     2.0;
    format      ascii;
    class       volVectorField;
    location    "1.5";
    object      vorticity;
}
// * * * * * * * * * * * * * * * * * * * * * * * * * * * * * * * * * * * * * //

dimensions      [0 0 -1 0 0 0 0];


internalField   nonuniform List<vector> 
19632
(
(-0.0001160148358338948 0.002756402921365313 -0.0004829431611244393)
(-0.001114755123588484 0.001078078674965484 -0.001271003575728052)
(-2.444265583192955e-05 -0.0001951212442761436 -0.0001933213925825813)
(-2.428194614540934 -0.4031096157344225 -2.230138554753979)
(0.002584097407536136 -0.01881295332134314 -0.0004181034336673307)
(-0.005226587543481002 -0.003807240753344066 0.001075039099447242)
(0.001902731234961284 -0.0004297940606010388 0.01232190358305784)
(0.001588783847899244 -0.000259681554764763 -0.0002923224119569994)
(-0.002419540536909014 -0.002464947248524313 -7.588853124511222e-05)
(-0.1399087785531778 -0.04303464234323223 -0.02976220647170575)
(-0.04891272587449683 0.03281960096669622 -0.1056860801380577)
(0.008316145378481382 0.006239309329447102 0.003212877887042052)
(9.696879589084494e-05 0.000100464382841805 0.0001414019992062747)
(0.0004140458694353775 -0.0001302382255202722 0.0001236340613832212)
(-0.001607913721388347 0.0009198572934355298 0.0005917312356569884)
(-0.009276875476887207 -0.006541902299903361 -0.03177076368829874)
(-0.007052270112240225 0.001000047391970712 -0.001760549516816219)
(-0.03124649099534526 0.02441497401587673 0.01067848443370931)
(0.0003772940824466451 2.581254595859195e-05 7.715769859366835e-05)
(-0.0008465925417109549 -0.0004984027757152709 0.0003202609095489927)
(0.08799788932577876 0.007406145329841267 0.0514333377625804)
(1.158713084872717 -3.779979807860195 -2.074569693324888)
(-0.205694630468264 -0.1591174911417201 0.1454709497717302)
(-0.001891930356454906 -0.001937586211713583 -0.003935398863308042)
(0.001229550765857582 0.0003566125424641967 -0.0001931713647265288)
(-0.0006202236565807161 0.001810329525339352 -5.198429853550321e-05)
(4.458207233295938e-05 0.0001841069881355408 0.001599781613089352)
(-1.525536151439518 -2.908740517259782 -1.203615096051783)
(-0.006038046761143502 0.04197144988693454 -0.02378582350894283)
(-0.0001167171332680667 1.878863121543358e-05 9.088449414065734e-05)
(0.0009770519711065535 0.001171241245369583 -9.508081117359947e-05)
(-0.00138936879092883 0.0001054838851335179 -0.0005352526296718822)
(0.09753409028500273 0.03290291281441994 0.0009086964892488364)
(-3.776920087054472 1.81181246427106 -2.08138682001041)
(-0.0003290912987290316 0.0001311166295172296 -0.0006262580632692986)
(-8.89938798087556e-05 0.0001254521993389804 -2.099173776300335e-05)
(-0.0006627590701987675 0.001111374589069793 0.0024114910473379)
(0.0004617440592181002 0.0001644359018134923 0.0003995063748947501)
(-0.001813835748440633 -6.942751699986495e-05 -0.0008465739611570385)
(-0.02786834033406683 -0.01790959534927301 -0.003377159566010274)
(0.001778493176741915 -0.0006051158120660975 9.440384652902934e-05)
(0.001496352078334439 0.001012058442423536 -4.754162314538909e-05)
(-0.006569668695164966 -0.001948318880865876 0.003226539056038045)
(0.1357260209323308 -0.2500269015057 -0.2188491624351949)
(0.0001048045237109077 0.0002319409258444109 0.0003142207628524828)
(0.0001784244973235762 0.000105333804868579 -0.0002671165475859346)
(-2.104825517006077e-06 0.0001173310549185985 -0.0002148645926221682)
(2.143356182260724e-05 0.0002074712360673406 1.125259738532919e-05)
(-0.005185732898281389 -0.01428046333364118 -0.01485406713394618)
(-0.006706369196829689 0.002138885810888184 0.003452640744867296)
(-0.001268443718592727 0.0004087608423884031 -0.000326089075041917)
(0.003617071104904987 -0.0003973816061588579 -0.004305802503351617)
(0.01081905301431142 0.007500139800963237 -0.003950018706592087)
(-0.000611204933819178 -0.0004431455991558129 0.0018995509034608)
(0.001097486943146224 0.001200543566728959 0.000214230240360636)
(-0.001864612089656768 -0.0009132491059508098 -0.002193269895834511)
(0.0007063104574316568 1.534657171391456e-05 0.0009327627310438629)
(0.0001199758561465697 -5.246858521423413e-05 0.001656895664411007)
(-0.003935636136692373 -0.03763537228118333 -0.02706906318889831)
(-0.05798623916108306 -0.06107003519533843 0.0834631137829701)
(-0.003174149875829892 -0.0001358129939113689 0.001026845251072897)
(-4.500017707037687e-05 0.0002114403588189549 -0.0001735803224462204)
(0.5561312223931034 6.10772003596506 -5.449491453852723)
(-2.786772991832704 -1.689553070705924 -13.78180260375778)
(-3.051851037418259e-05 -1.124402695293462e-05 2.097791073214209e-05)
(1.483067307212364 3.700167801375273 0.03686075951277457)
(0.119340700699717 -1.048806010383063 -2.093522203844753)
(-0.005121871796294654 0.001081020444384356 0.0006659737934275301)
(-0.001350727820940268 0.0003809353752128589 -0.0002677592748943163)
(0.001492754160346745 -0.0005373950437163712 0.0002542768403733929)
(0.00250955895133964 -2.117888594882077e-05 -0.001516248575909132)
(-3.962084990938089e-05 0.0001116769631727485 0.0002184793767032899)
(-0.0006382791837735998 4.616147386743191e-05 -0.0005626233842703132)
(0.003263315469985486 0.0008034384774702946 0.004368849379027517)
(4.834747057527551e-05 -6.538422818873956e-05 -8.98827915968986e-05)
(-0.0003692235953346479 -0.0002374361739605054 -2.364274041167497e-05)
(-6.329051826419531e-05 -1.792940837667317e-05 7.406059802689324e-07)
(-0.08840344379730908 -0.0163040704108686 0.6128334619488267)
(-0.35430398184275 1.172617503206647 -0.6384341478113144)
(-0.01540327048359911 -0.02417385046010515 -0.03275263836136906)
(0.9015699645173784 -1.105564011847328 -1.511411088124516)
(-1.236383654098348 0.03860749020625281 -0.4527439858478348)
(0.0002788402371543903 -0.000247895450967806 -0.0003678781503718575)
(0.0002439969733047568 -4.798613026868028e-05 0.0001820015173021721)
(0.001192726596617416 -0.001056226560231542 -0.001338980687305387)
(-0.0008808672016428721 -0.007085201290406955 -0.001802516912386709)
(-0.001308433963729875 0.001121578606298255 0.001211167615987808)
(0.001119405836079078 -6.887685225224548e-05 0.0003986096404275353)
(0.001653941364352022 -8.257256043980323e-05 -0.0004077624220090958)
(0.005080951996051117 0.007546896682487268 -0.01164094378479782)
(0.01323333164480101 -0.06417829670826837 -0.04709693984099941)
(0.00148321518824669 -0.000654722244661514 0.00309983058099993)
(-0.001326762834158427 -0.001185550631983018 0.001829561195580356)
(0.009536586651184325 0.00164818209342219 -0.004585924944954836)
(0.001213639876904023 5.713372093282064e-05 0.001959474286210067)
(0.002822900995760045 0.0007261084383921053 2.042470746487347e-05)
(-0.0006786155265303966 -0.0007990437519658166 -0.0007572585895385388)
(-0.0001069962466483115 7.432389544380607e-05 2.307085332264121e-05)
(0.001481372879827802 0.0005622990297238749 -0.001150156995239606)
(-0.003099368647602357 0.0001601065266684657 0.0006082227469123982)
(3.475908220864662 12.58163453145867 -2.305133984874839)
(-0.0001769381031734168 -0.0008175333523561106 0.00161736577141634)
(0.01399711637685343 -0.004568448250470584 0.009296538780509643)
(-0.002837407524717292 -0.0005049964151010459 8.734642893596838e-05)
(-0.6856245616488701 -0.1304546902945643 -0.1895736893947709)
(0.09214884158603429 0.005068611411323212 0.0388317024048703)
(0.02803098642768648 1.928744007337909 -1.279905748784786)
(0.01351868592380365 -0.04832234148943405 -0.008606380974420848)
(-0.001341997964998737 -0.0004971778902022081 -0.003294111144427827)
(-0.01457261401054 0.00584660977261126 0.008227004189905435)
(-1.140021388039963 0.9943810052655292 -0.6822094684926218)
(-0.001242691953919437 0.0003744860885677934 -0.001508871032867573)
(-0.0003832531166146568 0.001105002933652237 -0.00062012230018998)
(0.4176056088895734 -1.89488647327385 0.09246748548930417)
(0.0001137866413060372 0.0008840794164289336 0.003865534566508302)
(0.2483825133381669 -0.0184370995441204 0.02967789654855677)
(-13.43330004998267 14.47989382627429 -6.980491561626487)
(0.5025936496632062 0.289051781722955 -0.2604457094292549)
(0.001529863424323161 0.0007587317117432677 -0.002584795165002198)
(0.0008102534036795192 0.0008767402872482545 0.001131283745043468)
(-0.001296917548588285 0.000334842782977083 -0.003728198128177638)
(-0.005381272939650849 -0.005147738367244367 0.001825605579737661)
(-0.0001844778723911639 -6.917778563044196e-06 -0.0002451270126678926)
(-0.0002504844139408137 -0.0001505538493044035 -0.0001540144247951724)
(-0.3996400666864838 1.144045480304705 -0.9390925623883557)
(0.2319217111847904 -0.4963335364096053 0.06697255232133024)
(0.002459024644974609 -0.001958881002527968 0.0001912786882497578)
(0.001914674691715628 -0.001353304532958233 0.0001858022187755501)
(-0.005448517692300722 -0.002841886169084077 0.006463521833194628)
(-0.0004846090785143516 -2.538767383279478e-05 2.131913374999145e-05)
(0.0009306182087672011 0.000366027935167132 0.001629548304313765)
(-7.540422003705959e-06 0.0008164867586937466 0.0003994918638546754)
(-0.08025833726836973 -0.060232885649399 0.03146036061674891)
(0.0002323944242207864 1.671917073480656e-05 -3.147263867679889e-05)
(0.008197564546140014 0.004563735475649166 -0.0130540082823303)
(-0.05180694738071902 -0.006901545524034641 -0.02022541787825008)
(-0.002760438260040467 -0.001569859880478393 0.0005255161579469817)
(-0.001353603175147606 0.0007439937763206779 -0.0007568847458062711)
(-0.002055004681096008 -0.0002675854401965002 -0.001315718700189485)
(0.0003338340329404215 -8.858537886493874e-05 0.001620958837096574)
(8.402419430528548 -16.2594059881115 -48.60122768871472)
(-1.331942721161839 1.297404308661718 -6.632489516040323)
(-2.834447750295059 -6.170155228350132 -2.950757611026651)
(2.178602388336148 13.25305109122909 -1.803711882440436)
(-4.444536888743994 8.05418295353055 -41.02133318561469)
(2.220516456865075e-05 -4.626026266272915e-06 -2.213016053289298e-05)
(-0.001117142249741146 -0.001096966942824177 0.001375549214231374)
(-0.2500111250314579 0.3313664224223372 -0.8672062909702514)
(0.002049758838347071 0.0001732841014156074 -0.005997846441768451)
(0.001088855611666994 0.0001593019509264294 -0.0009553978673196386)
(-0.002247317579532772 -0.001216540027215956 -0.001790897757085731)
(-0.0007687986393424576 -0.002455018774915336 -0.0005015612677457628)
(-0.002259620436000538 0.000547450692761887 0.0003526269716543764)
(0.001398512046607073 0.0005092093283714371 -0.004560044695190479)
(0.008522054657949963 0.01296106634656196 0.02012840427225614)
(0.0001495534815047993 -0.0009151669666296345 -0.0007601220298410572)
(6.947306465149693e-05 -0.0002452432003104898 -6.231259648895144e-05)
(0.002240883144729413 6.264773635655707e-05 0.003773002161689625)
(0.0004353879127955173 -0.006529916488026157 0.008132851875161251)
(1.186261917992747 9.781525492389758 -2.713687706625231)
(-1.120711227052894 -7.201606101367848 -3.300588182501047)
(-4.13751664401719 -4.75319427554148 -3.484888809226679)
(1.76200112953496 -1.516854257488542 -13.28362416663091)
(-0.3387243904245452 -0.7317714389875342 -0.313065133787704)
(-0.0006007744447003303 -0.001046100910831393 0.001200594379636772)
(-0.01834820904451808 -0.006079331970861811 -0.01576807202851649)
(0.0003831736450790763 -3.670201576772036e-05 -0.0007733961866395657)
(0.007362560013653467 0.005038699157389958 -0.0148393052166205)
(0.6989591227016125 0.9246699867185747 -0.3860151042180232)
(0.001169424531362451 0.0002110773240796745 -0.001379778415307715)
(-0.001641869713752702 0.0004510865772443349 0.001808634917593076)
(0.0006841887407554926 0.0003829107509833717 0.001936687548178821)
(0.05465855357401653 -0.03149020538572299 0.02333700039663597)
(6.543802952748707e-05 -0.0006241060656785442 -0.0001934232422755224)
(0.001818327364535303 -0.004008006152267036 0.003279104088316175)
(-0.007359632264831816 -0.03922647829582307 0.05425543159886764)
(-0.003243573931810558 6.65322104127764e-06 -0.0006459799418391057)
(-0.003849712250049235 0.007109888399862792 0.008190744071085493)
(0.0007328374014812146 5.520793550445105e-05 -0.0001437696710117441)
(-0.0002315013998116209 3.27832328677111e-05 -5.778673611424603e-05)
(-0.001339685095367266 0.0009735514445272183 -0.0001485476694099855)
(-7.800752892387971e-05 1.381197772478649e-05 0.0001086669796098532)
(0.0001228445504937426 0.0002793782801789468 -0.0003091298183767815)
(-0.003256048950500164 -0.002974861027652124 0.001236042001022641)
(0.0005646721990606227 0.0003584429702811674 0.002873220394780043)
(-2.99283233140651e-05 9.02580990662175e-05 1.935568519201164e-05)
(0.004666512742703622 -0.0005454777870509263 -0.01160534283862958)
(-0.0009412009593945598 0.0006479733195117399 0.0001302337461155425)
(0.0005656649874464036 -0.0009816394393562173 0.0007155094491674006)
(-4.012633903738697e-05 0.0002257423916516452 -0.0001214719500516393)
(0.001383126700569627 0.001671319066955773 -0.0006553834072673783)
(0.02449508488476236 0.01755327337892073 0.02225613030786533)
(0.01417532120177309 0.01622730453388938 -0.1320157948540109)
(0.001443027683690543 -0.0007678546995010648 0.0007909433877564719)
(-0.0003069395250027002 -0.0002777430230823158 -0.0002918808695635636)
(1.459556533199829e-06 -5.442430781090596e-05 -0.0001560625016580068)
(0.004436340538668386 0.0001305143539149529 -0.000587569639570739)
(-0.501345543382002 -0.196771240769944 -1.203393522218836)
(-0.0004893292264420491 7.874470947728628e-05 -0.0007910403262016109)
(-0.07900726830620228 -0.01251824410665744 0.02491694505570236)
(-0.001233797163319431 2.194942400108536e-05 -3.831310607513955e-05)
(-0.005308789072078411 -0.002171552723911721 -0.002254630454733421)
(8.724789760817609e-06 -0.000174429052396239 0.000203503249647293)
(0.004258508482187423 0.005133093719522238 0.003827016409645607)
(-0.06561319289864059 0.06608475456742992 -0.07428868270791053)
(0.001468302620244496 0.00398256435189657 -0.0006305269022728491)
(0.001991811937550891 -0.00091524165107475 3.774558295675329e-05)
(-0.002960715189540801 8.882901497569707e-05 -0.0007329102435121803)
(-0.0003716400101034093 -9.529111608627152e-05 -0.0007870811599414444)
(0.0001056037148082388 -9.299401160137336e-05 3.801620773718314e-06)
(0.001502432983669722 -0.002399653677159813 0.003527673562994741)
(0.0004739725646061142 -0.0001184346950496307 0.0003934147858442556)
(2.990969245735776e-05 -0.0001106946309675897 2.435953629921763e-05)
(-0.001095825236684691 -0.00101329751393222 0.001991123532694564)
(0.0008625522201981123 -0.0002156736765956808 -0.0001576089424729295)
(0.002492695343650012 0.004249628091430536 -0.001172033271062428)
(-0.001703946125539774 -0.0004074307059174637 -0.0003560702250202082)
(-0.000339917785733064 0.0008486852921587293 0.003195736174574126)
(0.0008983738620581328 0.0006375287929664212 -0.0006383630643420282)
(-0.01771810674823046 0.008788404568887555 -0.027642217605218)
(-0.01157251553818076 -0.0217055934347633 -0.04761682604404845)
(0.006213862630745994 -0.00601144297539987 -0.001043538419296146)
(-0.001603001653164009 -0.0003879322594208941 0.0001192488806498326)
(8.470697082046919e-05 8.629590528678183e-05 -0.0002299712578020004)
(0.02122599582254738 0.05366292662797514 -0.00168659478418607)
(0.009149455259571093 -0.004803213321902625 -0.007840635120465825)
(-0.002760941762653638 0.01716416581712405 -0.01157365305736037)
(0.0002287654912933099 -0.003860205476803236 0.001468033500314544)
(0.0008700263338619526 5.194073648144227e-05 0.0002269665995507835)
(-0.000225890910318018 4.10887805637758e-05 -0.0002765323440796043)
(-0.01343046466530627 0.02054149761320275 0.02436664682252439)
(-0.0002227063997640186 5.513970727562879e-05 -0.0002074702015877822)
(0.0006576052250719868 0.003193541335827151 0.002502669408680994)
(4.766936761888371e-06 9.355156989764558e-05 2.991023479405798e-05)
(-0.0005828176059664168 0.0004790328405772778 -0.001111316146874868)
(0.001772466277065416 0.0004352198231882497 -0.0007998595191404241)
(9.671905284192779e-05 0.0001147275269764549 -3.16471196959648e-05)
(0.002074714917396152 -0.003989756945865629 0.03725214583809977)
(-0.008173009968314637 -0.005208601789991173 -0.001714025230848107)
(0.001429941193899776 -0.004163514430404062 -0.002839092798500123)
(0.0007611643462501164 0.001360700469854582 0.001985286022903647)
(-0.0732429878279241 0.1549895502172037 -0.09426095438155069)
(0.01308277619853532 -0.00364201579394376 -0.001257318605958624)
(-0.009787503820191258 -0.006072427505807725 -0.01837263051759059)
(0.0001432427158473399 -0.000178145155551626 -0.00020757616517699)
(-0.001375454066075805 0.0002154337579680076 0.002377529899599268)
(0.000351919410405874 0.0001923656512723454 -0.00440472820572007)
(-0.0008556432725128442 0.004093589243799823 -0.004588678124503992)
(-3.343214219813775e-05 -0.0001987188022291138 -1.798780187740838e-05)
(-0.0006235345440074038 0.0003856340104612403 0.0001428201252236967)
(-0.0001333602961650952 -4.363317823090288e-05 1.014801885761516e-05)
(0.0003084789813475926 -0.0001460696006684488 -0.0006630225873523928)
(-0.005659860890211778 0.0008697640035310141 0.009246270589948733)
(-0.001436005201559364 0.001457324180470926 0.002613592041071587)
(0.001579098476869661 -8.884706986027118e-05 0.001618664898469506)
(-0.002364755373159099 -0.0226691971516669 -0.006969635130926979)
(0.000410835815018236 5.408341751393231e-05 -0.001704291671649211)
(0.04504241117167879 -0.02370841332970622 -0.000916181313260078)
(0.1484205785465153 0.002174132314591983 0.1120079009239375)
(0.01146796223231018 -0.007231093373945247 0.01797163042585518)
(0.003073524959378236 -0.002445590953431442 0.006029932801443963)
(0.001651313282057114 0.0006527570494439394 0.001006528848891316)
(-0.0006696632165475412 -0.003012023221341109 -0.005554455610133278)
(1.344680530479633e-05 -5.471623823171713e-05 -3.10312722186483e-05)
(0.003189657760825478 0.02582056436984496 0.01333056818785049)
(-5.359846545672421e-05 -2.853750576474304e-05 -3.316706710499366e-06)
(-5.99223548405914e-05 -1.185435835428723e-05 -2.656373815819658e-05)
(-0.001015615021974811 -0.001289084749069662 0.0002164391142492526)
(9.984812820742429e-06 -7.557797509762124e-05 2.037576520338423e-05)
(4.107220113376089e-05 0.001099559994606836 0.0001564838892227577)
(-0.0004372012092458995 0.0001348091228108323 -9.136783946618631e-05)
(0.001739852453842148 -0.0007293588295146345 -5.575132941981589e-05)
(0.1057899827445704 0.07369415358816941 -0.05342638952458004)
(0.0004477102915201932 1.860624479360282e-05 9.353006909800721e-06)
(-0.001109860270974519 0.03392771169907054 -0.00312489011344553)
(0.002790782063939501 0.001782455933372268 -0.0009262101084215406)
(0.0003088723740927265 -0.0002970919550723469 -0.0006568953751318909)
(-0.0001096515761129071 -0.0008237836799315642 -0.001325223858772271)
(0.0001319241142656086 -2.54578593967635e-05 -0.0001015609715006521)
(-0.0200746336469551 -0.08351001436451827 0.05552334225529297)
(0.0005013430025287446 -0.0009127518541406519 0.001451020137525343)
(0.009132556689337219 0.001222878496952409 -0.003144179422866684)
(0.003553992693939406 0.001283071835438404 0.003066399345602133)
(-2.179405070147877e-05 -3.303829778778052e-05 8.973438223674222e-05)
(4.935367642243453 5.650373355512306 -1.619896123753289)
(0.03766024940827107 -0.00708063594456034 -0.0004576849822755635)
(-0.0008773633637595109 -0.0009553063813395256 0.0004110000269118767)
(0.001745500675574009 -0.005996239775318317 -0.0008332687320402371)
(0.01473655458495342 0.01380423526995985 -0.002841002072204454)
(0.00253581494409244 0.000211213758158744 0.001198027156475004)
(8.793682877578848e-05 -2.69617178152631e-05 1.439123260572752e-05)
(-0.002064690221736526 -0.001291854874745098 -0.0007733112745715919)
(0.003736117110061918 0.00368425448298162 -0.000822449206301359)
(-0.002831382698820442 0.001049790990967303 -0.002731975642885199)
(-0.004609060116094224 -0.001403113367394683 0.0002055041777403764)
(0.0008922418380677468 -0.001116221090843443 -9.068052794430041e-05)
(0.005756862059922114 0.01557235089448469 0.02200987750769641)
(-0.03038491927608724 0.01796382230019233 0.01673559324093924)
(0.001476567545421717 -0.002505566600173847 0.000339950997762532)
(-0.003050378843244706 0.001113175668422074 0.0004715839617362222)
(-0.04167085467641896 0.004085165438192508 0.04702257821963035)
(-0.004405842897220989 -0.004581986376323913 0.002749647382506341)
(0.0005633117805076823 5.190623525243347e-05 -0.0003899142129509135)
(-0.0001974539644678802 -9.485163048053951e-05 -5.307776587401496e-05)
(-1.703583126211502 -1.468847818455559 -0.410722260154074)
(0.0006339010723015038 -5.362254808955803e-05 0.002021819221015559)
(0.0010237956679732 -0.0004176920654823205 -5.560548394681071e-05)
(0.0001697327882359007 3.562613478060576e-05 -9.053683021929631e-05)
(0.003735313611908751 -0.001520036023913372 0.00273936613246137)
(3.529604913073612e-05 -8.558581278953602e-05 -3.785600101626795e-05)
(1.629372941690084 -62.14588868052964 -4.952912812936939)
(-0.07385753518861971 -53.54717017685058 -4.216995776053637)
(-0.0975431712125452 -0.0004759854628523818 0.03705989558238258)
(0.00119535679296715 -0.0007506714851871169 -0.001297222281389773)
(0.6675670646372175 -7.948427396549883 -10.13351811243698)
(0.4737895670797223 2.275001845885771 -5.608067491683638)
(-0.8939716652955918 -56.34916609909489 -8.072978980462022)
(-0.001290775485519372 -0.0005983546330863467 -0.0006895110024898537)
(4.117042813956831 -10.05304818616781 -5.715020137376595)
(2.684456273366585 -8.221452741306697 -69.05473040994492)
(0.0007327693996163608 -5.09501505668993e-05 -0.001620592226435913)
(0.0140322343312753 -0.002367216046386908 0.02011699924167159)
(0.1335978855484707 1.115516365588355 0.1054433074348037)
(-5.418123477528808 -2.654165089675113 -52.64284828451503)
(-3.9608663773025e-06 -2.263429374075561e-05 -1.068310300873394e-05)
(0.001435216850390662 0.0004012212869440457 -0.001213490780807192)
(-0.0814731855879731 0.02748196544339295 -0.002251966424312395)
(-3.461744111765631 -13.81039679508521 -12.09101648575617)
(-4.908871471251807 5.551507789628689 -7.611142339483664)
(0.00895195390474731 -0.0144988763255643 0.02498753418951409)
(-0.0001326439500590434 0.000343567676629896 -0.0003663898960215677)
(0.0001689908555552051 0.0002573683436213041 6.551593857157505e-05)
(0.0001907910851801747 3.764414514062424e-06 -0.0001726034255301565)
(0.001129242320554438 -0.0005817776583724001 -0.0001255793230413914)
(0.003009881517170952 0.001303776750348585 2.907306335086368e-05)
(0.001573575172403455 -0.01211206630994599 -0.001779397754522433)
(0.002213380638572465 -0.008645507630328795 -0.01217957059905613)
(1.669169892683724 9.308157654334485 -5.373412776938696)
(-0.0005553174951897484 -0.01507798412412078 -0.004692659243745157)
(-0.6872804541540684 5.165140602003112 -58.48745618480387)
(-0.0003501590779891652 0.0001948577250083627 0.001341911888211639)
(-3.932134825873095 59.89112459457205 2.050135062263346)
(-2.356936910957814 74.07990606920539 -11.74081622394558)
(0.001375619262154684 0.0003027669721176742 0.0008673487180816365)
(1.388860104645778 7.600856650412643 -7.04171477926691)
(0.0007637759117026306 6.371686654016003e-05 0.0002327128919119832)
(-0.06557696260081651 -0.2350760302294645 -0.05176532293975632)
(-0.004659292376161304 0.0005189312896697975 1.772370969324593e-05)
(-0.2608077749442477 0.3502031127878666 -0.3950072654496028)
(-0.7447233985309962 45.04135537082548 1.606417959357775)
(0.0009879725705941268 0.0004251746456511679 -0.002716043749989933)
(-0.0003801410988661924 -0.0001524507163736584 -0.0001183862148840353)
(-0.02123617129586496 -0.009625099328395774 -8.211170425205701e-05)
(4.72316932731311 -7.265591440394465 -5.205244561595747)
(-0.008142820889907091 0.007844279511733427 0.01027391604464125)
(-0.001853915902079068 -2.254092973468002e-05 -0.0007345333736731947)
(-0.0005508929319779478 -0.0003555680657098773 -0.0001841409802513967)
(0.0004380789706266606 0.000238202654501776 -0.001906817111961478)
(-0.0004034093346370652 -5.745722525979093e-05 5.7717839643187e-05)
(0.0009909966102265438 0.001817528551480121 0.001306487501652326)
(-0.1162026487562972 0.01120611730898015 -0.0261133811427119)
(6.82392279598276e-05 0.00017815232233191 -2.685010780362077e-05)
(0.002261900341271723 -0.02132969615917032 -0.03051893148834442)
(-0.0002485090373384161 6.605187105413816e-06 5.868712425601173e-05)
(-0.01561974975754041 0.01137340288106245 0.0457474534164454)
(0.06210071907634272 0.1611996832538282 -0.10701414795214)
(-0.0007542856903236942 -0.0001423589303260942 -0.0006037065912443364)
(-0.02880814242090415 -0.0239610217524692 -0.01913366467176739)
(0.0005533190575004762 -0.009004191307489829 0.001010055063722878)
(0.2470960451669975 0.2501561777819833 -0.1940266505749418)
(-0.001956763713410874 -0.001701747615309846 -0.002253525297521949)
(0.001121989291010115 -0.002954014901319277 0.0004361206433046439)
(0.01048910129448971 0.1273696413820013 -0.05406874081506774)
(0.0001609565083600004 2.500172644667308e-05 6.37631805872576e-05)
(7.900282104985332e-05 3.373455789087518e-05 -0.0002949403484850463)
(0.0006465035897085918 -0.0007739347647991706 0.0006180752551495383)
(-3.689620812478459 16.33138979837735 8.04622032742553)
(-0.0004131177303015915 3.940477874307949e-05 -0.000334070078871224)
(-0.0004450140658850857 -1.884802050535431e-05 0.0003826036425538935)
(0.000118259095907278 -0.0003785999117324188 -0.000159447227217839)
(0.06324004212289694 -0.02827188989481133 -0.02591891086445261)
(-5.608332392359363e-05 -1.749867533600796e-05 0.0001372233023389331)
(-0.0004444915617398882 -0.0003846277657717908 -5.707365181525108e-05)
(2.383583198685098e-05 3.466296772033803e-05 -6.286578687556494e-05)
(0.2300137662022236 0.03169480460634087 -0.1197856744043188)
(-5.544209399310263e-05 -3.522407895403342e-05 -1.930761838054836e-05)
(-6.947964596644757e-05 2.570899826238391e-05 0.0001440448472591909)
(0.0003509541849755236 -0.001297626020370463 0.001915301520778651)
(0.1153207149311441 0.1531601455768567 -0.2420455068683424)
(4.298008466419164e-05 4.519840002897381e-05 -6.643194754731139e-05)
(-6.391713141862843e-05 7.869279870969392e-06 -7.045610662694888e-05)
(0.002258705909480677 0.001488930222033211 0.001431034856261744)
(-0.0001769422663944801 -6.974378009839075e-05 -0.0001283647042910318)
(-0.0005304677742303528 0.0004049447933701676 -8.246233820590089e-06)
(-1.337977198622108e-05 0.0001987858745798191 -3.60424740789817e-05)
(0.0001033740307654784 3.890340243456131e-05 0.00032856342905991)
(3.063722901766062e-05 -8.267036578191639e-05 0.0002219164787505665)
(-0.0001379280477527238 2.822187665933543e-05 -0.0002781796948726304)
(-2.972423398380723e-05 3.650898902625321e-05 -0.0001505604790780766)
(0.0005145825112600543 0.0003539832311214308 -5.752892880698859e-05)
(8.993307911355376e-07 -0.0002753995788937342 -8.515925093023884e-05)
(0.0002184359549202109 -0.0002492093448300027 -0.000256633874476254)
(0.01724742093860675 -0.03113639245781055 0.08843905395159302)
(0.0005023178006588309 0.0002536330032703117 0.0001325255811850297)
(0.0002665368482321968 -2.487870860302835e-05 0.001251895962479422)
(0.0004077332895266263 -0.0001321173131978384 0.0001286892692213021)
(0.0002363399508309986 0.0001450089086244361 -0.000147627528681736)
(0.0002513227062953651 0.003854925732879778 -0.001520727891483465)
(0.3571812528814006 0.5045907438484708 0.1134714034306891)
(-0.001125179140680552 0.0001088705406438639 0.0003646414462319554)
(0.01539779809271028 -0.02471098148812011 0.01071505257889648)
(4.769434147206935e-06 -0.0001017862726564431 3.783882251838501e-05)
(0.01267637827636162 -0.06332366299465722 0.03692607883369713)
(0.0001490236515910763 -1.445778023602847e-05 0.000464104215216893)
(-0.004721746642817449 -0.001490500875604803 0.0003201055547602564)
(0.0006216963698317088 -0.001845879314033518 0.001311010644807075)
(-0.002152045992936438 -0.0007549275222038858 -0.0006249045848542371)
(0.3770917920320803 0.1127493134467574 0.1679873974922378)
(-0.0002802127396676335 0.004632045976078885 0.0007761912108328543)
(-6.842743944672128e-07 0.0009445340566260771 0.0004327544808848325)
(0.000597611748106482 0.0007691324530160856 0.0002892587593617085)
(6.742605429859274e-05 -0.0001050841379463812 8.48911769537388e-05)
(-4.717913754067028e-05 0.0001723998664026468 -0.0001882800169982516)
(0.06858998579471907 -0.2106433561298554 -0.07768071165539803)
(-0.0007517919931464567 -0.0002484040124612341 0.0004041836952373497)
(0.005437529582543402 0.001365810706315665 0.001158270410016175)
(-0.000117748090742903 6.156258896345325e-05 0.0001072836419598763)
(-0.001502147289785407 0.0006774438283321863 0.0007653618131191844)
(0.004169702031326274 -2.056697109584127e-05 -0.004967893004275352)
(-0.08907784628052146 0.007127296844353079 -0.02404678100028797)
(-3.110750123591933e-06 5.4366695596716e-05 -0.0001130415608987459)
(0.0001053725299088801 -6.527945886007275e-05 2.058233585217808e-05)
(0.000132067518610372 -0.0001653097528197433 -0.0002517018982979025)
(-6.207167169083057e-06 6.787950374267989e-05 3.409597590837996e-05)
(-0.0002851350637840357 4.115387996513964e-05 8.497816792594896e-05)
(0.0002556910561138365 -0.0001742487171799334 -0.0001779753274768307)
(3.520543608696401e-06 3.320808226973661e-05 -5.290469316864633e-05)
(-3.715472478675935e-05 -0.0001413881772212179 8.134071108157991e-05)
(4.026183008091598e-05 8.061279908957612e-05 -8.049180196862387e-05)
(-0.0002816192750592651 -7.846242896719215e-05 -1.96766412720894e-05)