/*--------------------------------*- C++ -*----------------------------------*\
| =========                 |                                                 |
| \\      /  F ield         | OpenFOAM: The Open Source CFD Toolbox           |
|  \\    /   O peration     | Version:  v1906                                 |
|   \\  /    A nd           | Web:      www.OpenFOAM.com                      |
|    \\/     M anipulation  |                                                 |
\*---------------------------------------------------------------------------*/
FoamFile
{
    version     2.0;
    format      ascii;
    class       volScalarField;
    location    "2";
    object      p;
}
// * * * * * * * * * * * * * * * * * * * * * * * * * * * * * * * * * * * * * //

dimensions      [0 2 -2 0 0 0 0];


internalField   nonuniform List<scalar> 
19631
(
0.740252905674575
0.8067225627369029
0.8478222070852914
-0.423134707416267
0.8281303174247568
0.5473256312874142
0.6641548203170871
-0.1415876716064572
0.3720334967905036
0.8115123996956548
1.024793934867611
0.5657074209191323
1.168792208385511
0.872332678108125
-0.09987648300068991
0.4120040097218645
0.2039019376184065
0.09987662567026072
0.4987917677452803
0.3229220806211676
0.8004579514882164
0.6333197383559487
3.336911507235926
0.6768053019761793
0.7459263836381749
-0.8097923543864481
0.2617359804084586
0.02561824864466243
0.7270557608247082
0.9656320818913762
0.6120454964631497
0.5804432341986306
0.601764204170494
0.8752328628154695
3.124588056391841
4.311754654320254
-0.2299902148148546
-0.04202055977627792
0.3925242841639172
-0.4721994313732155
0.7861517257031082
0.8626527463961368
0.2684000191720656
0.8688316349220716
-0.1149871585072341
0.6845505987349345
0.2891239156315508
0.6135018291592069
0.7254123228669047
0.6275839650086839
0.7608546260669169
0.519660064247731
0.6504305004546533
0.6090527288986086
0.9409716290683219
0.4954136526210951
0.279215091066377
0.2176620599164448
-0.1307258752980399
0.7408541552081813
0.6904882076612401
0.472861002996245
1.273022288147874
0.899618905012574
0.893224040536581
0.4465215538804113
0.5965476208862874
0.5832677247213984
1.102178356930101
0.7133948623365627
0.7149680705410446
3.117362661021201
0.8609951838681871
0.6899008064339107
0.6860165374483654
0.9909475951530329
1.092669453162572
0.2891784131845703
0.6827916249471616
-0.4648726264699785
0.5278845874624782
0.5323898313488241
1.36167075104809
-0.3614379920773355
0.1781975928934815
0.9432218856970224
0.5626143529381085
1.293033612861054
0.6112792915429383
0.8379714850050554
0.3611802398004721
0.6324112953491087
0.578388294875912
0.6466440848406664
0.2636547423156651
-0.11415552025044
0.9054650466575226
0.2818260057196201
0.6532489393371597
0.7510917651794381
0.5735749551971734
0.122753574778837
0.6306775434242222
0.7974557831995789
0.7565003687956819
0.02477433695784016
-0.1993577424124008
0.572613086520364
0.5200542582491275
0.7744732738545543
0.9382361225648457
-0.2425094451134461
0.2872378768688505
1.08769581719647
0.8964832202970292
0.3013695113148211
1.866525796218932
0.6325276325381665
0.4875260609069967
0.6301171558811078
0.6162943728443977
0.6480948466069768
0.6419072652651455
0.4126029569360095
0.6963185040162756
0.8029087407685207
1.445041375179869
0.8276860681266097
0.7903885908190621
0.739221596456083
0.7618510784874296
0.890044222977219
0.7669984615103248
0.4713318806976937
0.8708388186273345
-0.8684957041224192
0.3316386444151653
0.5211445022351189
-0.2243014993199362
0.7658866401909064
-0.05712428342835773
0.1324373507874672
0.8718152824460599
0.3905198169675006
0.7051574411249251
0.2388162107096938
0.742436687571783
0.5349910866033274
0.5180814034060411
0.8941903160235731
0.5554158659861108
0.6484276574910579
0.6673163041923398
0.6254494368945416
0.6156340185938239
0.5052668554670454
0.3441613984758978
1.247979237290446
0.5997915140102521
0.5307792098046817
0.6661931349099761
0.7124740723697893
0.7243163027328277
0.5863945695728455
0.1870440844842903
-0.5495793222962686
0.7105410280308002
0.8161876158345251
0.456915429336158
0.7680899378784046
0.5231711139325242
0.7822223660465584
0.5950286362452759
0.6367922302097073
0.6145753010778791
0.2442075376148491
-0.2381108892229051
0.540939309336834
0.56113655020396
0.2208408274733727
0.9048317017414832
0.7152263733018568
0.7444434755999084
0.8273481645944453
0.7519536173645605
0.2498654080207577
0.1312651552729516
0.5585738468521669
0.561467428081672
0.7027097710792559
0.6007742789289332
-0.4754284640309905
1.041574997318351
0.2171629756321784
0.6161868440552191
1.67504851315706
0.550696474084344
0.7863014503345437
1.085101248106909
1.031825585803702
0.568747020746304
0.585473385951073
0.3471907247648077
0.5391590497585736
0.1731627510570401
0.7775190049383013
0.8303313150387063
0.9703025502921223
0.3773963949855567
0.6619692749906939
0.4574971115880144
0.5360975118078743
0.8274660610844016
0.8209902641857499
0.8418344190237258
0.0249273907619096
0.7499850112844242
0.7944280056414713
0.7298529660552042
-0.133628597073616
-1.153815063584936
0.4799746485664191
0.8755987655800248
0.3470994760926993
0.7410314984694274
1.001141861858375
0.8815121628272872
0.8793994017557593
-0.2129087768931927
0.5831756314833532
0.6354687986262593
-0.01103527063305357
-0.1837974312973068
0.05697359360978709
0.2345188524531886
0.1064448661764331
1.817045866783952
0.4948444739946706
-1.110657640978871
0.8844996733899755
0.4610749008075561
0.6801560893474561
-0.3204281828642761
-1.878026924371627
-0.03887422868857899
-0.1251435647275056
0.1939307938688928
0.5441308459027249
0.5672972357162117
0.7691806317952949
0.280458771051392
0.860668266490014
1.019926305749889
0.7176702466161915
0.4513190171746557
4.280842819693098
0.5625783904717391
0.622816036873183
0.5994516737155654
1.038439587144946
0.8975549767846447
0.3468991150854628
0.351954259851949
1.261279085136794
0.3697435084844065
0.902777060696852
1.03361348893798
0.5369191625110552
0.7223496429402649
0.5863699976885265
0.09163537413735778
1.111483069649431
0.7299776058989551
0.3998666020842858
0.1774639855299372
0.5488230883667552
0.8446305196099438
0.3835446425683888
0.4496269763186933
0.4935586383934896
0.9026438561328898
0.9992780859404948
0.9654299737870997
1.746443985842075
0.1921237791941156
-0.6101331156556745
0.07126541429985304
0.4144194747554019
0.7255652166155246
0.1043910507187593
1.386400597346628
0.9125713828949655
1.04968419374063
3.244521683930621
0.4712654225493075
0.0973259100365986
0.3974272536794459
0.8121270730077578
0.9173788860106116
1.649725970001156
-0.687751963034822
0.8267352388590825
0.6813095780534399
1.754187320346483
-20.01403446328478
0.7021823609459474
0.8146768872712763
0.3221612550944059
0.6766213428631167
1.352436806039817
0.7227552891874744
0.3737132040190935
0.7235122395322161
1.091455050431936
0.9586021505525721
-0.0008836392279080274
0.8037176956954312
0.003356506703289981
0.1328873781365742
0.6976879627417434
0.4488263086232862
0.3951900777370069
0.2590887032028314
0.6971462097354307
0.9622658250614787
0.6470316612179333
0.7646676490331603
0.2946990787172286
1.067839187610859
0.3625478329473704
0.4673238148254631
0.3238281855897839
1.376819867396946
0.7372397395064098
1.194972245965468
0.5444343827394672
0.9469704436397753
0.4545413575330978
0.6571551925969882
0.2331082995753556
2.885163446588358
0.7420721442767321
0.4255750088936346
-0.5162547182503688
0.6381129081441076
0.8451980446672326
0.5260561595369962
0.6265478495404104
0.8908712920429451
0.7787429058800263
0.7482097433662821
0.2552848928460197
-0.3622245328929838
0.7941953802225278
0.9119590653043363
0.5661222623998343
0.7433291380265221
0.6877791580408735
-1.00207139807024
0.2511115167032562
0.03886851775865828
-0.2759759977565562
-0.1171018931609135
-0.321471334447591
0.7588129413745851
0.3050884016414862
0.8543960928824007
0.5600532078504833
0.08674927198838403
1.171364163544332
0.7014987593220254
0.7483849583577115
0.4211708384544989
-1.147193574071035
0.6300475964234351
0.8737198387962536
0.7152599714810157
0.9340323773893574
2.268714238657828
1.084371646779386
0.03205720237989063
0.6926296800571925
0.4821594988153082
0.7127030179443917
0.9044063066513972
0.09087258766999179
0.182111177912205
0.3917620880996202
0.4489929613245642
0.3337235449071785
1.060284700505219
0.849930625241872
0.8155599710799721
1.16491257928564
0.4842692611785392
0.8231668935548141
0.9644984839366474
0.07826382779244748
0.08232394254510642
0.5900124594526741
1.117173493108975
0.923622690958002
1.889694970800105
0.7091206264775777
0.4160221995998666
0.7331119556263224
0.8667472391767481
0.7115556718814409
1.057242912654871
0.8224975609157442
0.4471592038681621
1.39250456087161
0.710277577111371
1.130090874244745
0.9222452213153444
0.8807946666356531
0.5219477924283765
-0.213169666875382
0.4816601407195673
0.8344320035953922
10.84630113813679
0.8254543932507284
0.4433275619045035
0.3583171767462587
0.3176408010847282
0.3055427083278691
0.09369142779246838
1.230587298475622
0.6766034406879737
0.2303970122788167
0.4541901555693094
0.75811968160095
0.62206640699041
0.3229077042001055
0.007856006452372947
0.7165629197217301
0.6563715384442372
1.121764305309277
0.2529621418176536
0.6518821073069793
1.099427897133119
0.2412163688980212
0.7459011167455132
0.6465840731085769
0.3575733156017558
-0.1560460594354147
0.1937344730536021
0.5896368544930946
0.08843662159556609
0.4558674996661026
0.9324379411726191
0.2765179893414934
0.2972851155372148
0.8001995503126889
1.031671033656004
0.6616831936737891
0.5524068887718446
1.178144354376892
0.9516730146979893
0.9252360956087413
0.6519482928011358
0.1163451855632035
0.5528627173170846
1.045712304624618
0.4920977421684189
1.169897112431943
0.8451642117407812
-0.8873359593746243
2.01446826267666
1.37554923352893
0.8876757723235398
0.8819784755100353
0.8962121389944177
-0.5264564393671722
0.832562076514725
0.9788552268211479
0.7955215010555268
0.03530912151791687
0.4401448567319455
-0.2748110940544849
0.9948816519122512
1.467876333979117
0.885656031409643
0.7136103314796011
1.420169176489569
0.2258850922460539
0.9421421147929745
0.5254751750116226
1.029268241374049
1.109499859430157
1.253952177949365
0.7088432903863214
1.066998972359523
0.6939151372429038
-0.07394361070649205
-0.3231855612348211
0.8317585776913266
0.6911480428469273
1.377406443412838
0.07374440698348021
0.8452272338721135
0.689265086363872
1.274276896051783
1.000924136068357
1.663553057559709
0.7480687933034307
1.01910429633427
-0.9276962906247336
0.851827680111449
0.8494347211676575
0.617768760729181
0.8874555080907534
0.9001596293208211
0.9883554052400765
0.9773713214479958
0.3670827881712449
1.180847271748657
0.3618598948645749
0.367838063710515
0.6324436773881355
0.5557890993347299
0.7941413684788545
-0.6794195905809796
0.9457020322292561
0.04878467565576784
-0.8703441846866529
0.7178320518677103
-0.6133258048454329
0.8717191974859263
0.4990625013902039
1.027984329932724
2.551829825360329
2.612619451465467
0.5836151712302947
0.8054900956137492
0.4449783720355138
1.05453430866035
0.9035598047992442
0.7376711293934035
0.1060651472737559
0.9373811946311327
1.030837253692153
0.7295228712482291
0.9458014240589039
0.8884896827297651
0.5181657212485383
0.7618799852715528
0.7967371621536842
0.3938677294888625
0.9256801474328223
3.268450303808411
0.7332254103578315
0.7407927961400693
0.529231859380543
0.8355355253174923
0.1368883252562416
0.4328184758631216
-4.318829062451523
1.024588641954221
0.717312273805392
-0.03277633569737708
0.3551709605272451
0.1928527642578229
0.7455563687433853
0.6599406082113218
-0.01678068855613337
0.3538473151369434
0.8479917269382934
0.2873764951755773
0.7578184271168684
0.8859970979501975
1.004344571795508
0.932782503786225
0.8124194361138862
0.4767113709619385
0.8354417830201512
0.8035745016548672
0.2645178555090676
0.7921452119367026
3.136185427480203
1.094460318849599
0.2709148345412851
0.318099281623877
1.162021135874379
0.8114989019556624
0.1725534770825483
2.621556641675189
0.5741952297824163
1.023328576250833
0.3335810837234492
0.556765339493734
0.1875385396821221
0.6389265433311975
0.5935366505916094
0.9872135140167635
1.106058771434714
-0.04029378059185428
0.9199758746678713
0.7357516340128211
0.8503640696588597
0.648346929930315
0.997658390229096
0.8397578050091271
0.8016511453964302
1.447001961666773
0.5181146258871074
0.348630656612984
0.456510813499786
-0.104956518154523
0.5374124438642597
0.9290652693076732
0.8736892780098612
1.502599119311423
0.6146638391491954
0.7257049770202663
0.1458410955298049
-0.3484213680064735
0.7350182501575978
0.3120491109633784
1.552054273795061
0.6724058077779368
0.7546599180339864
0.8333061422700744
2.541960525270828
0.4915754825095086
0.847533153782617
1.038277658270486
-0.0002915874690476596
0.4239920776687024
0.2895974540347986
0.9239884346734001
0.8550623319694169
0.8228387577298387
3.482542888085603
0.6990107569566664
0.7976573013453556
1.278831812933717
0.01020691832749332
0.9787772268123962
0.3423977334557074
1.508828021838571
0.8731706693479943
1.051585452448424
1.026998556762777
0.1899138373390961
0.3132141790576639
0.8845642390163087
1.311019980933423
1.622881582311489
1.170243014417663
-0.2651556862485976
0.6621041364188333
0.1826735211492669
1.433214817135581
-0.4415410444341544
0.2277672139120399
0.6011119342008903
0.3643646651641353
-0.3983839914749723
0.1851635608589349
-0.3046933085948484
0.5065978973398825
-0.4291430888159604
0.07964589765742318
0.1189734765581469
0.698863284708616
-0.02078719135605295
1.066565866420973
0.819317550984619
-0.6723587581369651
0.5147037834329777
0.6877401087183581
-0.1546090549002408
0.6646910511619319
1.541216664872418
0.5504512314671846
0.4164781929810728
0.6302662808069173
0.0843478241707134
0.3110772673684602
0.9129315385190928
0.7099945394578611
0.2355689173250222
0.4866700815769682
0.05352424224388605
0.2190567184164365
0.215513106424211
0.2346980481726554
0.2787416991950183
0.2526241231416947
0.1935658345562555
-0.1752653420690816
0.2428781986270932
0.9701875887356128
1.208499504273313
0.7148606356175978
0.7046201297462434
0.4278279266367498
0.7431828584951985
0.6600992225704913
0.6412158780070999
0.3103369027607804
1.073902830108174
0.8034039970315486
0.01324150077920316
0.8991813911468221
1.086634354806141
0.4790025650333181
0.1543045321271146
0.701700612428049
0.6004604011592759
0.4973312974051747
0.01475449014115555
0.7584365178515037
0.4510152355576423
0.3258289827348457
0.132633116502586
0.1897081562151601
0.9777309212320395
0.4668952342878089
0.3502414743904618
-0.3364307687045759
1.001398622018232
0.7593865305647708
0.772025796774898
0.459185133586682
0.1949798662332516
-1.143050873828787
0.3742395263781316
0.2491831972565957
-0.5960583845249567
0.4955514105800158
0.2656179075819065
0.07390790577354529
0.6611337564147201
0.4426728318610149
-0.6403910026234189
0.4610690137355739
0.4717213682184865
0.7539317317536106
-0.5291285630561715
0.6588741035000371
0.752232193492959
0.5063038348222972
-0.02836158248030991
0.4363982245782209
-0.09323182852610017
0.7334031594944799
0.3951183987443593
0.2729000691724939
1.153941479564382
0.4253953225428432
0.5909304837138459
0.5214271125340139
0.1756397857150122
0.3116370145429336
-0.2784654088953626
0.4046124668793532
0.2372610942807257
-0.278764195308677
0.1390424203691758
0.6023202874548648
0.4602101798583586
0.2711833181945824
1.026076752943246
-0.05017137214767762
0.2746373293223965
0.660449478482435
0.7339902230655049
0.5277534352559057
4.05003797438764
0.8027978573209915
0.8660717537855508
0.483630775330851
0.4165044483334002
0.8660709553163912
0.3479424156125291
0.8087861514685067
0.597575085447011
0.5707183996098014
0.5770885620851676
0.6662174517065907
0.4399153408806125
0.9288519471035271
1.279182174804978
0.3389618551672968
0.575618343042946
0.9449630817701387
0.5026932568258162
0.7715513909097141
0.3401542819741258
0.5913468954572151
0.1780854015477214
0.4832114420397743
0.639831032063387
0.2295146605916713
0.2406729299148384
0.1213429038741386
0.05996194963647678
-0.07927086892626235
0.3729576686710047
0.3113467015576723
0.9656728718546153
0.3232129200026505
0.2999676064898799
1.389399168808787
0.6797896722984146
1.05498853091881
0.6870978322700736
0.03932612996716351
0.2623861079762223
1.432591108041012
0.654270569222832
1.417272624702347
0.827733171813144
0.6923303330076406
-2.232984918475195
0.08971216965123095
0.3130552335959415
0.1873887708278405
0.1293897101054403
0.2711400970746753
1.214173073459973
0.2225863407295701
0.5473934498096281
0.6881601749337067
0.4050772658772998
1.005763789070272
0.3019976800999616
0.7514753458198115
0.8036488989638747
0.5477336731340573
0.7163211642725059
0.7754049217981424
0.8274362484299737
0.7590304126352888
0.4892464179979069
0.7019755436442167
0.1975326722517096
0.8203501879558862
1.023923081769058
0.5854994440385608
0.3731521359672942
0.2553736155767354
0.3771863421963109
0.5612495948684126
0.6806433282585441
0.773976107364309
0.3449952077234989
0.6488479821835799
1.467620706110971
0.5883078865499765
0.7730189054533936
0.2427564143468324
0.1722920860140255
0.7520517383420179
0.1549615148863776
1.175193188793643
0.669618527133453
0.431368170548632
0.6906343143848258
0.7801578332082819
0.8672037023143792
0.3253740776430953
0.5951315653978253
-0.2251851706893357
0.3665292468633369
0.3235885607777774
1.069986071535388
0.8968062739852365
0.5652642872418792
0.852051989364221
0.9305675148002733
1.062448768519034
0.2862608996344562
0.2961863798085159
0.3201918879562913
1.011629685707659
0.2625711972832578
1.655801667850993
0.9724876407114921
1.887146770774808
0.5567908627613722
0.1642216370946827
0.3862255187109615
1.308498783700275
0.748366359048473
0.3324240878729307
0.4917647772048109
1.573859839409335
0.5729561571507359
0.8301025064343373
0.4154113179769996
0.6469099662627383
0.7292486830722518
0.5543388722983208
0.7838004392685644
0.239892227090338
0.09784211612485785
2.642995392850432
0.5958931736267029
0.2875163096102115
0.8104944920107364
0.4552745405366318
0.9019736388990945
0.4793814934906611
0.7172044536171819
-0.1224104400424733
0.9077364630557759
0.6345113599755474
1.319961229000765
0.6308295120481052
1.101800275669726
0.9057344917014817
0.8538085400638565
0.5882326606969021
0.4908952422430889
0.7876048901017704
0.405722550925509
2.288934669066527
0.2455905851974461
0.4686428635460293
-0.05558999350620174
0.9559959296768016
2.600247399242119
0.614278789027179
0.1462476518511652
0.2752907815085598
0.3347492743613372
0.4130816190233206
0.2440012075085542
0.7301313280054382
0.9364085579485173
2.247313334728037
1.020213295726724
0.689229554003984
0.3542021868844415
0.4285540550846808
0.7219509818053252
1.337347063845158
0.7299931190322526
0.2255694528267521
0.5695256637872976
0.4360892275242818
0.8196442008619884
0.6820996781540493
1.151345176076695
-0.03567440847224462
1.020415122760389
0.2379292120329994
12.72775314784146
0.739616047500136
0.7798009141760347
1.133482433063567
0.573760090085527
1.221551103125921
0.5876639513741863
1.384379676888946
0.5110073630262251
0.6805299569453865
0.6929162023953899
0.2763666754470078
0.5296726745093485
0.7481105683610417
1.266120025821583
0.2213343782089927
-0.1476916938196113
1.287728177799347
0.7713423151187944
1.123419444079776
1.086761444926533
1.112241229407166
1.549134645188097
0.7060710406786102
0.5825682478047247
0.5516070300644396
1.111393332793371
0.6807272008450393
0.7663836966428283
0.8047459180836757
-1.067597167841473
1.022030851451506
0.7155359436622284
0.5438500996437757
-0.09707697466439492
-0.4288113824449812
-1.10352341833923
0.6117707811597762
0.8140642636982696
1.075547531829201
-0.571734223912033
-0.08701453686087343
0.6669746882099203
-0.4989320610376701
0.7298599206003222
0.4280963261357527
0.768566808979869
1.032594526596359
0.2468567425991195
0.6781562469613166
0.9338994617922327
0.8432091616814369
0.5429069992527077
0.1275972909278314
0.351632670916898
0.4066354566912552
0.4048965036566284
0.5202537327687707
0.6877540964805989
0.8647623844497283
0.7425847353316016
0.4004579466404023
0.4895213562487628
0.7299811453731693
0.8741495642063102
0.1203287549946953
-0.5348903886859789
1.637792537037905
-0.3554888907913043
0.4891707097472427
1.160369794445103
0.6666377332934814
1.286003772469527
1.050332987639159
-0.6649284725959758
0.4494730913907519
0.5215742459078074
0.2727552034864142
0.4549530186447312
2.739386266855323
0.6568689756325418
0.2572718360490031
2.97601246726717
0.2391101273736968
0.6870357900893769
1.277235251967068
1.053342122474174
0.796180508162721
0.4291872457461646
1.904345110073663
0.7038210251365534
0.2686924774827129
1.102579897075704
0.1680968498667926
0.721325213545577
0.2565607444299659
0.214855738296132
0.7282001262551182
0.7450145383836354
0.7801241174011835
-0.1568102473624642
0.9159225320075357
1.099263767820957
1.026017767873095
0.1883866465331472
0.9800904978468261
0.3838562048399922
0.5041718442795969
0.5753927216134214
0.4254908681101901
1.197482622981543
0.2619266709104798
0.49912477021727
0.05981288625582551
1.434427535930509
0.618149473065125
0.6437636930961569
1.82379050770257
0.9475038022160989
0.8821002894047241
0.5223507105149362
4.902645539618701
2.589572157559405
0.3191252561120325
4.218864030386142
4.390168168584002
3.978323070361114
0.9532375776500812
0.8811038693680824
0.2558178539639654
0.3791350231541847
3.222332730859579
0.8797247342451551
3.723879073711271
0.8658134369396664
0.2992320776034813
0.3407117851852295
0.3346956587590746
0.3350265490541971
0.3000142914448012
0.2142436704622378
0.2659847395076165
0.3245537821830635
0.3624402954948957
0.8900162112502664
0.195291132372224
3.884892539359774
-0.2077430514492094
4.017553882650875
0.9314114114478848
2.969258502310053
0.8111302037497718
0.002197049020514869
1.243545047474512
0.9877618677851044
1.561194607035344
-1.005608207885853
-0.4920343235447257
0.2131112600717851
0.2947195619692393
-0.5440069746770257
-0.8825662946558841
-1.739316673966955
0.1236986663864299
-0.6869024269369558
-4.940291224744485
1.202130799305132
1.339874657558082
0.8535750289885345
1.128202010872134
0.4531831190024581
0.9358422358244179
0.4717310672595185
0.6617796842359507
0.7071521114364235
0.4624377328042579
0.1628076581309781
0.6459909602730231
0.8618981785107137
1.308401738483415
0.9567089760739189
0.2800506661700126
1.192869162530634
0.4026528584414903
0.8900485874268117
1.058255994062239
0.04175511588865938
0.8043701945536872
1.771864586237291
0.2900705724309933
0.167549395635552
1.529571621825678
1.64949094995025
0.9885067746004593
0.1010032436298168
0.7261555310172036
1.055092475825962
1.610439690592879
0.1441054429055985
0.3376533243753651
1.482563004765793
0.3370648498411279
1.500495374335726
0.4061085090933154
0.2593528076352066
1.30492042998519
0.6909292526260997
0.8686877128279875
0.6850319528823705
1.186037022921257
0.4979820540423099
0.3411878876394808
1.59513082982928
0.9373914926965815
0.6869857067308166
0.7304926634896476
0.2468923886842216
0.8253402949134077
0.9435767139084981
1.009223565840692
1.088754760808145
0.9486102917903095
0.8987016382199023
0.8377809530383887
0.9757550217680845
0.795894795878424
0.8643427412683792
1.339570462612571
0.1151601058927273
0.4431064495714096
0.7110798233030874
0.2809992444554696
0.3130194432612902
0.4009122787382133
0.5272311119264002
0.6019863430907139
0.8769173722801215
0.5611421279151818
1.077064123475564
0.5141110088581596
0.3090985307392393
-0.02382586634087474
0.1850770423667547
0.8381981819075104
3.393195837931137
0.5126138427528071
0.3214104413398979
0.5796715889261587
0.6196709849162998
0.879939935935072
0.8761458393074788
0.4893460125590874
0.6038785767425507
0.3759180242429513
1.101376469806422
2.739614448066246
0.6966811565259694
0.9639870175710387
0.9690758729472967
0.5746038584681091
0.8153540991095968
0.8161443358363308
0.9512695898555603
1.082776099582686
0.7955466220268477
0.6785089357186773
1.403760532044055
0.5516874782681243
0.5960276668745521
1.154068289174342
0.7122210265082072
0.7591026895217388
1.161886817721381
2.629589754696301
1.124340800310619
1.148148916847577
1.07717208370829
2.567744900897245
0.4486057729033094
0.9676200714420928
0.8297177919310661
0.3916025999064748
1.127102989178765
0.8305455342098923
0.2188705795258041
0.6093989600869057
0.96051443873972
1.130750028583555
6.422169572600735
0.7885060471451204
1.279995190372039
1.970307405315175
4.244821968056576
0.7998530795288121
1.259501968934858
3.263648856339953
0.7812526132686024
0.9517681504551398
0.8046129139737944
0.7401035946135883
0.8101305399735369
0.8866639048530172
0.621891439096084
0.7706331636980259
6.395635223198354
0.6981057142455923
1.004441939139716
0.6641622800867383
0.340400709700215
1.188625400051043
0.8536992244454458
0.8716894554048902
8.073706276298157
1.64206573166217
1.048812288582053
0.7084721490170911
0.618649054325998
1.242992842728033
1.130252740860261
0.9968172626543556
1.272664304712276
0.6985871520737721
1.293955293627703
0.5710558937762316
4.498747106482561
0.8156345308739652
1.548635666375999
0.7499334876992857
0.8499875744579705
0.01594691581797829
0.8257157647105546
0.7366231263943537
2.383344358946478
0.7763595938731485
1.321971103230424
1.03047378685971
0.79521905058233
1.042135269399488
0.2836954804161784
0.5940972209030232
0.7057577582233542
0.7926486359976287
0.06261709071980316
0.555356621280589
0.905249768704787
-0.3611267951942706
0.4517000292728892
1.374638000479787
1.173680592332245
1.230837675647316
0.568203498052031
1.127241056394668
0.8700628988725327
0.958472339777351
1.193164275448363
1.537444039287275
0.112456698021383
1.177799164944629
1.954671945208311
0.7155292890753997
0.6253849650057646
0.3578767067094635
0.4660220704192463
1.206755625463865
1.19948001314544
2.204339247568083
0.07813206527120252
0.7314056726049324
0.7595565927219921
0.6699951683770476
0.7098126048162232
0.8654403833512376
0.6928945545399506
2.198324772158364
1.027293320019467
0.9005879603709409
0.7339017201441229
2.61254643917999
0.6562318424733138
0.763891534413898
0.8592970011773091
0.7816883195103789
0.8938621586830774
0.8557614763032365
0.7325263692333844
0.6684380909930442
0.7383632706760432
1.052109534066048
0.8947464405403749
0.8722956633278245
1.074569509540791
1.648654094551189
1.050500333897821
0.3673591779074937
0.5821924905874133
0.7232666081927874
0.1886579060929553
0.7803964764106546
0.5887065698761351
0.6267402092583413
0.949733144771758
0.687829673836676
0.8452618017877653
0.6951517724232505
0.6838113705652682
0.3492086868796164
0.13799995353821
1.023924737731868
0.8675565252544106
-1.760565345038076
0.4747555244527333
0.6484796087767306
0.3901690627190324
0.7998500395647525
0.4981548843187649
0.2680459031513558
1.329793522304941
0.6592695733543193
0.9107144689306529
0.7665274481353498
0.8523575532300994
0.7472974321877293
0.934817900197494
1.05558250784869
0.2623747844519383
1.204586952283168
0.8111741315812819
0.9694070592144367
1.142426249788786
0.9098842901904564
0.4666636952268779
0.59197314358881
0.9559339755078526
0.6939052947435526
0.9068058548128302
0.5317428352793082
0.8748365758609515
0.6895397111500137
0.708322999541951
0.7957058343176124
0.7126074565370407
0.647092558427477
1.112275100868413
1.418454908248258
0.3308263805951876
1.022482718344969
0.8851982347732
0.7877071404209176
0.7516494313553358
0.3454134369676978
0.686321116451782
0.8563323778195586
1.077819510057613
1.137516005258005
0.5623430110549612
0.7011722171227853
0.7412112892467059
0.8919632961988119
0.9681097068589847
1.092168737638971
0.4194048293568833
0.97812425237378
0.6509946684396325
0.9843574408695333
0.8742581168108148
0.6538295380321327
0.7576203970331176
-0.3307994897820652
0.7190099104338421
0.7704391614069612
0.8712623752235459
0.7409187104408687
1.018747566219801
-0.9454414090883227
0.7704086782351023
1.339733521216865
0.6942772269460337
-2.248230472431322
0.5078183528200021
0.5394709608346302
0.3444242781720785
0.861942310237082
0.9235971250006656
0.4191161384031648
0.7093954379765369
-0.1725388782033394
0.8576826269397849
0.7157973385838547
0.7532125176180642
0.4684161651105939
0.5170257797495931
0.4123441022370039
-0.2537526904754619
0.6411846505942479
0.7920985178895259
0.7977548115589745
0.5980687360923268
0.7853995523846751
0.5456746409580652
-0.2270463929265427
0.8345170170326597
0.535161002077732
0.5436729100524763
0.9231667881528418
0.4692878843468875
0.8730402877399662
0.7447414873165545
0.9039532599644051
1.563282782340295
0.5684680884965577
1.084199564170883
0.8688214627304638
0.4840221213371738
0.3884402106101607
2.383208114904746
0.9339910389368528
0.1608583145323701
0.4295198637574699
0.965151241228382
0.791061908933653
0.8248198986903413
0.8328825211586214
0.8607844422082365
0.892713057492342
0.6842965194796645
2.52325499104692
0.5129222807966128
0.7722170519900543
0.8522927569633481
0.1937253263098265
0.755836281748935
0.876887899339271
0.7161608058066596
0.388309743989208
0.4559695469040912
1.170435859026643
0.6450203172447841
0.9221352736745925
0.9723033150173603
-0.5799951559616556
-1.415108028861162
0.9386269675698243
1.071506925840843
1.013968946427932
0.7608306961672225
-0.7637291675687088
0.9208276354477757
0.823300916752457
0.8260441331358579
0.9847137187836464
0.929501537421942
0.941636656759169
0.01303714627250359
0.9187197444387036
1.097394973122922
0.385652536179509
-0.2223309779505722
0.6985170261007094
-0.7043359244621437
0.9728197930544258
0.7594296679785663
0.9362351307062583
0.8590271027360626
0.7564153094484223
1.088334224028604
0.3469393167911344
0.06522346252854441
0.7213779786623248
-0.005508337793752691
0.2247051521556884
0.4634881781181637
1.078359696162624
0.5347382460620426
0.8040795522151397
1.402088286328835
0.4627389848465855
1.396149039871975
0.2088842170835214
0.7729081499864963
0.7948441544650462
0.4674251870038432
0.6907597620916411
0.6668252063401646
0.5893418056431758
0.3875644720420533
0.6922855013059597
0.6057405187430321
0.4867985296923099
0.9285019360227436
0.7680817448665835
0.3572379823470816
0.905891063344075
0.4820415561325501
0.5810296108643094
1.686162140499012
0.9481707712983096
0.7380313281607114
0.8150323432653021