/*--------------------------------*- C++ -*----------------------------------*\
| =========                 |                                                 |
| \\      /  F ield         | OpenFOAM: The Open Source CFD Toolbox           |
|  \\    /   O peration     | Version:  v1906                                 |
|   \\  /    A nd           | Web:      www.OpenFOAM.com                      |
|    \\/     M anipulation  |                                                 |
\*---------------------------------------------------------------------------*/
FoamFile
{
    version     2.0;
    format      ascii;
    class       volVectorField;
    location    "2";
    object      U;
}
// * * * * * * * * * * * * * * * * * * * * * * * * * * * * * * * * * * * * * //

dimensions      [0 1 -1 0 0 0 0];


internalField   nonuniform List<vector> 
19631
(
(5.034393724807353 0.05136736622819063 0.06592626648535267)
(4.841491904875921 0.07550923327362095 -0.08907192268825775)
(4.961521010694582 0.002358427920366535 -0.02996582823523438)
(4.111333855745073 1.801261663901349 -0.5530850512237222)
(5.04511322977245 0.1160827765757916 -0.01705255605332684)
(5.040967227862367 -0.08920027021401158 0.07535900740034063)
(4.987607868915628 -0.03121760291190688 -0.01418613146980828)
(1.613800858267225 -0.1185357774660307 0.04743578530261235)
(3.472275990063796 -0.2748082908547821 0.04944174201377863)
(5.008865054124318 0.02823446659670893 0.02148136456259224)
(4.935686947038115 0.002714261323371362 -0.03960397627315274)
(4.992947158658629 -0.08559628158485559 0.2945653782750929)
(4.336682113726498 -1.614273353758328 -0.4465565101629345)
(4.992076618030734 -0.1899283101267417 0.363627917365634)
(4.991814289903195 0.01335150021570858 0.01632729691648218)
(4.906419546908364 0.1889121671996402 -0.05219419422192559)
(5.052707837592259 -0.06769222980764637 0.519984061249736)
(4.215777149467636 -0.2963829725797035 0.7639998642645101)
(4.692289449799452 0.01452200602130184 0.2430206118353956)
(3.763914500691548 0.008582506796633367 0.01486384127973646)
(5.013450966278782 0.0850346544382047 0.03708592627265921)
(5.067438897120937 0.03933465053228472 0.1063150580476428)
(4.518175454510367 0.007390814873970133 0.2540283192482598)
(4.95797752992115 0.02606371418609209 -0.01810469765948003)
(5.107875378471937 0.03506848520563149 0.1477906134950131)
(4.989762455505387 0.1095428372249111 -0.03009572280117731)
(5.087693476296167 -0.04636901381252507 0.7145335065030601)
(3.599057198501078 0.1418905105255567 0.005882052934939943)
(5.045846747146324 0.1491646301232708 0.1767139171040386)
(4.977416367729701 0.01380541314258359 -0.03664611442987281)
(5.085685227073997 -0.02631412958480591 0.04955193551591032)
(5.090748347902442 -0.0269384673715732 0.1121445854895868)
(4.887516796180917 0.01342113228051108 -0.1442431387591485)
(5.022510227312879 0.08244543301696351 0.01362773558841586)
(4.155329115910746 0.02720916336029366 -0.112184068717252)
(4.363388399912315 0.2021378477917993 -0.4862962171740914)
(4.956917003971832 0.07006626436914677 0.06290601957604018)
(5.084631828053657 1.042232185804568 -0.5465674752087559)
(5.131509265917507 -0.03749446517318904 -0.01780853928300491)
(5.531082942822785 0.09279103628855082 -0.0614123152678952)
(4.334213753773529 -0.4011366941262167 -0.6148885227877348)
(5.004052693923304 0.07809164845303608 0.02267062651386222)
(4.99040592370949 -0.01182992956453521 0.03031826154630891)
(4.987357668572628 0.05818839311261381 0.07119932425755129)
(3.96992365303532 0.2514869740528309 0.2640357549981044)
(4.453702606985253 0.05110124292062504 0.2317368950333966)
(4.971017938445151 0.004771934609850827 -0.0004084974791929422)
(5.112863916696018 -0.002864843254814381 0.1121786423080289)
(5.034384432882104 0.06127174293298594 0.0782618125438449)
(5.125666109145008 -0.07603201850089035 0.2745950673607473)
(4.609085274642174 0.3815625375876326 -0.2336877463257608)
(4.739451215488971 -0.7055631383450276 0.1078227214014522)
(5.113967841174325 -0.09370385618753994 0.220648859063741)
(3.844581475742025 0.04229832577903395 0.239160914488453)
(4.98346761131456 -0.05277896955155035 0.1122408263787259)
(4.610462133300819 0.1175073412255272 0.1891509432715249)
(5.070681059885016 -0.07182699137513772 0.4532536550611952)
(5.002687691162494 -0.1227801877990011 0.3811210612639861)
(3.851483744631017 -0.3778500367350086 0.3453225538041343)
(4.997625448358496 0.01233022344073609 0.02641044775503758)
(5.034628341009475 -0.01793363705145779 0.01630761055017353)
(2.218912729436425 -0.2013651341677177 -0.08616714272402601)
(3.020330217464678 0.2347355370225246 0.08715701986723001)
(5.023383638098024 0.0794605312987422 -0.03927928010125099)
(5.045244267125403 0.001870583463740927 0.161623264318522)
(3.644114992308731 -0.1092368483965801 -0.03112099842210771)
(5.065318812585438 -0.01158114802687689 0.08086139442438967)
(5.09526234423554 0.02027282980016526 0.1788586798557137)
(4.91188875590377 0.04090007280174281 -0.0554340630445385)
(5.0206455483392 0.03054853554726257 0.03830109174403781)
(5.004854719032108 -0.01011337291511349 -0.0164597837331116)
(4.036526305743244 1.118181068267136 -0.6088392998419091)
(4.982774623080757 0.01993535439967388 -0.05106223809915373)
(5.051982364444712 -0.04822053002851513 0.06993479763964836)
(5.097036743810433 0.09529954671795805 0.1289485549497615)
(4.989534900983505 0.144011901244229 -0.2355882032241123)
(4.941383148418709 -0.02792628323578353 -0.05116150950046719)
(4.986590422371731 0.02458502600798578 0.1248384306849368)
(4.593319445287348 0.1419280108687087 0.5853542648675927)
(0.8911134017485171 -0.1141289342559196 0.1836027386164564)
(4.987745967459342 0.06571048626144667 0.02592174060136265)
(5.113980237681986 0.1286861768958236 0.02179461041736509)
(4.926315162706726 0.1424088744660853 0.0007099605944322588)
(4.891938447897918 0.09974317326731073 0.4107290903590629)
(1.464592226442945 0.02622520844444845 -0.319295631356562)
(2.379978170043791 -0.1575587384144756 -0.6048009482411626)
(5.107586753013608 -0.09342552089873812 0.1927785583118863)
(4.832801904281268 0.06352583038604814 -0.06027502795332666)
(1.661721839211808 -0.09747033839643787 0.04866022357366478)
(5.027572607671552 0.06026051462121918 0.05834753683399722)
(2.074754190699827 0.09219598270171046 0.03885336014595679)
(5.069954095679997 -0.03024235406046388 0.07543765605967501)
(5.070494179673203 -0.03367310009326036 0.04877795143007943)
(5.058202506438116 -0.02115877373711289 0.04892622922712062)
(4.874527428461897 0.1306775318943897 0.2590428895474359)
(2.667326779846763 0.009676181137130029 0.1298287257845443)
(5.031818714487668 0.135793593661227 -0.03930939201888222)
(2.405224969895909 -0.06898663586564145 -0.04556290137992387)
(4.989077582513096 -0.1993138078831009 0.1487443685551305)
(4.931204399800176 0.04202294036473411 0.2451062077513225)
(5.070458216810837 -0.02948706421789598 0.1691465121747948)
(3.35344205900646 0.2019855945189473 0.4015281647277121)
(3.605589690371259 0.09588853155517656 -0.2524928134958229)
(5.022139815316704 0.07200849465813097 0.03910275778786276)
(3.873880793580184 0.1475060330950665 -0.1524907409952349)
(4.605071289522332 -0.01923526645949022 0.06337967215600572)
(3.319903906429451 0.2731847836589597 0.5596310872032145)
(5.063882139977449 0.003677267803938613 0.1103729389155614)
(5.125651311783159 -0.06760617749277122 0.09740006771432104)
(3.354475839019475 -0.2409464376045089 -0.01268060081635432)
(4.97310200005463 0.3356572898620137 0.1104688515372049)
(4.927715078986687 0.1441283628638393 -0.1114186252451974)
(4.938960953409798 0.806341192508334 -0.3379367015980552)
(4.531304446642647 0.4513703093227244 -0.6121019000634859)
(4.939535259410785 -0.1326489610876198 -0.1904748625476543)
(4.853913485716582 0.09083641482539252 0.05695607710917067)
(2.456397235864358 0.007030528628220106 0.2589880042350412)
(5.011798910528711 -0.0191911822956026 0.04636773214926529)
(4.77304709512794 -0.02903651120922147 0.1136287785475217)
(5.056146491132545 -0.04338339642591705 0.0209247334247964)
(5.056675331473039 -0.05099934660131984 0.05807295581880478)
(5.032710360801269 -0.01672573255995709 0.02881265931960624)
(5.038697749293444 -0.0545874761122615 0.01910950892785132)
(3.539347653561746 -0.06812296518272129 0.2400745221665335)
(5.011026550550224 0.07750560777816559 0.5639299248960163)
(5.004891167651705 0.1041457261158884 0.1194036514513249)
(4.938838638023691 0.2660729955563551 -0.06104799168494137)
(5.026131861358031 -0.1345851583564636 0.1844650850262644)
(5.008984030357794 0.03141903627951297 0.03151886730517623)
(4.27242487898982 -0.02078159136695777 -0.02892682833659197)
(5.065951583716265 0.01921675605561964 0.02854508594911761)
(5.026021864890666 0.07193935338503654 0.01221812328436457)
(5.058310242064493 0.1605262271341116 -0.1716901139082818)
(2.443014160403851 0.03121217372946544 -0.0009200183128606453)
(5.032675288659544 0.1319947056097492 -0.02810397722227732)
(3.429375014613187 -0.6024921302283116 -0.251467957227024)
(3.44678031562678 0.6941630709057616 0.4341294328482973)
(5.007802392451629 0.08034534317728119 0.04700229953516643)
(2.35459004534347 0.4811714574233743 1.120920829011152)
(5.0582344722565 -0.0920719923549717 0.06640418881546013)
(2.424830534263662 -0.01865180018256559 -0.1137615829226004)
(4.595743674915555 -0.1106031871121748 -0.2937393034009514)
(4.253485523819173 -0.02365505182302898 -0.05425276359693591)
(4.973950725639874 0.005126251190203287 -0.00668066643077926)
(5.112322678833567 0.01620691397612604 -0.1011110797699328)
(4.054968205329335 0.5122654966542951 0.07871810651121414)
(5.048269795667567 0.008736732218742271 0.05442603844919379)
(4.989063475818726 0.03978275868462806 0.01301845996864437)
(4.994333449735986 0.009952779947896171 -0.007486279075207818)
(2.913375270049864 0.1294348072334372 0.1106444919125929)
(5.09833866697059 -0.07110500452184675 0.1333982166996342)
(5.065228236563057 -0.01106144828073188 0.0711722921395252)
(5.055383680740667 -0.00665128678339741 0.07911031535879114)
(5.044766479638782 0.07826448109367297 0.07719035363407258)
(5.057013272690102 -0.03588780200786855 0.09007638365765026)
(5.041296397289734 -0.0001059961012344076 0.09963847771677185)
(5.002502807197191 -0.03071437167112838 -0.02021860942823499)
(5.030586257185083 0.1057398417599363 0.366100287838979)
(2.569232580924502 0.1161687591864921 0.03904127819817627)
(4.3822926677275 0.1173907090340423 -0.06111744138363734)
(5.046871641950849 -0.01188432540886306 0.05326416778283096)
(4.98933202372629 0.03690839287581894 -0.01566613899222917)
(5.045569540579913 0.002581162740740986 0.04545033867007985)
(5.055867638277787 -0.0310447339140585 0.05172921172257644)
(4.964671937738238 -0.01124539520639795 0.003097930787355786)
(4.959518887513959 0.1433067397578631 -0.07436233001548355)
(5.052575257439337 -0.04402989835476692 0.04546314601915902)
(5.075483764674091 -0.01599585973173077 -0.009348726664961124)
(2.481128442217413 -0.09989533174235334 -0.2775156099028214)
(5.041469908225039 0.08261266979840777 0.06091178900714827)
(5.059370608393267 -0.05442844575711151 0.05129039609508326)
(4.972923786413133 -0.04026160262474821 0.03549346729978933)
(4.96180918688797 -0.1818850101844035 0.3401668588435092)
(5.075391054725827 -0.02050435461815134 0.09140466320815317)
(5.050207417493444 0.001775593906335268 0.09596980260093407)
(5.130792600377644 -0.09090768210674154 0.391767522189934)
(4.982618181644873 0.002821283689163488 -0.01871831551245227)
(5.105544254321835 -0.05101150270051195 0.1490555678847613)
(5.057732619951554 0.101591599124207 0.1414957663045562)
(3.917489060000883 0.3625853754427285 0.5119174211667179)
(4.983424266522301 -0.1270880419538366 0.11213069075355)
(5.008713242433561 -0.01924698961147048 -0.009900115976666261)
(5.026334937154148 -0.08286234049722778 0.01802543461201242)
(4.515775800148826 0.104169840596649 0.2304931739715607)
(5.010989123786421 0.1403663340014844 0.01526118564971925)
(4.963583695388551 -0.01663159971270952 0.0268960438072076)
(4.982604969515035 -0.01653857032814599 0.08676507033167621)
(5.048899354822742 0.02192178910349363 0.01152517361866153)
(5.081470836704865 -0.01765584652245443 0.04264255233585784)
(5.038680419192663 0.05605487427487432 0.009179700833690555)
(5.06537837414634 -0.04673693801839723 0.06938141787894891)
(4.974796760936012 0.3470867686881643 0.6793666820267958)
(5.009609084848257 0.08564554740819813 0.2001877013440902)
(4.986581998641092 0.01094867555014901 0.01379757649654962)
(5.127539557189888 -0.01387111852572374 0.2890700868039598)
(4.643936554979161 0.3371611156609346 -0.6202147081715146)
(5.127998842138565 -0.05526818918203758 0.2293479617712384)
(4.995942792290848 0.06856241732081184 0.05244422605909083)
(4.942766695440188 0.01918468222753704 -0.0524325383797917)
(4.952051259621559 0.1188724449519471 -0.06232493885708679)
(5.054258513809358 -0.0161096071829561 -0.01969879482526377)
(5.055784770588525 0.003980162820553974 -0.01827922857552138)
(5.041731679328813 0.03917996381685106 0.04959389084849702)
(5.036365976253961 -0.04459219935669452 0.009699286793307494)
(5.010609168456771 -0.005221509215392249 0.004428136721211844)
(4.959856193951342 -0.1787554973582096 0.1240420720626116)
(5.054262040733382 -0.09576069251929371 0.05919361765604803)
(5.026767377807059 -0.02371703390489918 0.1779683400822632)
(4.851786254797618 -0.1620471297763981 -0.0111450112643767)
(4.974893256181853 0.08041614593873472 0.4716896786478364)
(4.960648218685815 0.06118678446775261 -0.05502351260747258)
(4.995934015723128 0.05178860280173044 0.5341280111185969)
(4.268462281351608 0.1044016409764343 0.1002933930824616)
(4.988421767596887 0.02842121632082261 -0.02528252431018756)
(5.054610442478992 0.021179680884031 0.07815644746928278)
(4.026096478350644 0.1824254602507866 0.4852434497372363)
(5.015882362577297 0.03321849448545608 0.0492826381775998)
(4.991004985103441 0.02184842436016935 0.02706590372611575)
(4.992159062983143 0.03485115564898333 0.01308934519060085)
(3.045371775956357 0.1459905655216057 -0.09249128855890001)
(5.103236241963482 0.05502197709659601 0.09055606783821762)
(4.974508933925993 0.09424195319959239 0.0649560620916254)
(4.956333884562881 0.1042952152200124 -0.1136390188868579)
(4.995456059008825 0.01379536638145342 -0.0009798235995259552)
(5.030030170022996 -0.0009365520399222701 0.02801763224449295)
(4.97482365311012 0.1169828115970464 0.02347268168445042)
(5.027055717521008 0.09010541703197794 -0.07424558288099839)
(5.048664361023528 0.1680485135796057 -0.1347471655195402)
(0.6063330332601384 0.04396741211298574 -0.2548267795349717)
(3.743235215102986 -0.04939113565608525 -0.1073222082537914)
(4.984108010179716 -0.001582230698720098 -0.004846388973512116)
(0.02178414872066679 -0.009247925205391468 0.03065233301399544)
(0.004660260833223187 -0.03321892519676713 0.01869471026022209)
(3.150091280561754 -0.1525080964059847 0.08491707867207481)
(3.485511499739413 0.05067230888818293 -0.04829583395854687)
(4.98013707657247 -0.01663504422502263 0.196062294666988)
(4.118297582255085 -0.5239305262704823 0.2112636724673612)
(4.78594022624034 -0.3181600833229487 -0.2448934514844298)
(4.901052985272415 0.05139012202368327 -0.2837121374666183)
(2.960303195866176 -0.1131100530475843 0.1226801593328034)
(4.926400971081229 -8.944319631980318e-05 0.009990349927456836)
(5.065917788359095 0.02772038378561161 -0.02168286450465738)
(4.999496760424417 -0.01920907456438717 0.06374050317421542)
(5.171363169524853 -0.1587368831249014 -0.07168527550359019)
(4.973648611393359 0.02280790498187173 -0.01701777821793637)
(4.964070674116363 -0.1756828509039137 -0.4793169273655185)
(4.874720147543968 0.1261129357957839 0.1339822575555051)
(4.984719982251583 -0.05441375219846122 0.01354325143241138)
(4.822663522731618 -0.033461458283818 0.03746679879838447)
(5.03068871149103 0.03333953805276944 0.04157174951773139)
(4.688122649472238 -0.004750231030949968 -0.1858623608830285)
(4.476475447029157 -0.09407958393095642 -0.2711484486666352)
(4.972855894128053 0.116626178820245 -0.0766995015167572)
(5.107130370475033 0.07103785961705129 -0.1056763611261811)
(4.883541161323691 -0.03195382670452505 -0.08118733521729518)
(4.835636782538795 0.2925837969439812 -0.1018730019893033)
(5.063391656042549 0.1558719688462755 0.05499002525556827)
(3.361254033854889 -0.1588000092294997 -0.1161722701819742)
(1.829870733426386 0.1098363329355691 -0.1586754405703445)
(4.834090950760348 0.06001752530410893 -0.00690508071829769)
(4.990110219357628 0.06688383740645937 -0.06950619642822732)
(4.914522920354092 -0.06709567203972491 -0.03221622018648274)
(3.988404023592376 0.6572904732382375 -0.0394327730671493)
(4.903861455334678 0.1212293670684037 -0.2569835170135939)
(5.072863346778677 0.03007698154728838 0.02007374256003432)
(4.993645782146865 0.02913451803631808 -0.03239513898190113)
(4.955137075694453 0.1327081286563504 0.06997547532055973)
(5.064097144596223 -0.004029367281268839 0.1529628551242624)
(1.857188602252323 0.08568421530804406 0.001946015183358894)
(3.732689130124469 0.5780147817554577 -0.4705146425089946)
(2.57430804627523 -0.1764120606427118 -0.1277596275321501)
(5.012579356956935 0.1176588055018847 -0.1337474578531622)
(3.285870584071338 -0.173042189084879 -0.06513492332782944)
(5.004069751855731 -0.009941437204649812 -0.02348074483648159)
(2.545807338238039 0.266085055888434 -0.0152338612322942)
(2.019254907330645 -0.3251008818396194 -0.2401860144484631)
(4.987821815221921 0.04788178762085108 -0.004186079639582815)
(4.199065174885187 -0.02214632994643885 0.1926545447512996)
(2.662420333377082 -0.3544308750158719 0.01677409874786703)
(4.964966504845211 0.001905842470439723 -0.0381774873081351)
(4.869489867627826 0.1116763010484436 -0.1332580239034125)
(5.0447349293705 0.03037109031556681 -0.1757832054669066)
(4.89548391976862 0.0893154040801242 -0.06078099980959236)
(2.782846102324658 0.3551822695528033 -0.3139266520221467)
(3.200948123788631 0.1593314589240873 -0.2274701995842809)
(0.6047781743981326 0.08195277333481592 0.07970355569345543)
(1.623300161781954 0.1268399557629768 0.1994878963335147)
(2.484967088601938 0.1903716532239798 0.2307872802165117)
(5.058552549292772 0.02775032295626743 -0.1192964337913897)
(3.439806840701781 0.0983523588559678 -0.2005753953185064)
(5.11866525139445 0.08009566989588469 -0.04410124166328853)
(4.965305618452486 0.0009549255112473913 -0.06882859337301316)
(5.044867467720021 0.1075736104041337 -0.1710445561920427)
(3.153374328586353 -0.5171367362809774 1.154588128041921)
(5.078208008643134 0.1278965080298194 0.2841288714259503)
(4.995742035729799 0.009060067217809791 0.0148130960758872)
(5.042710500827427 0.1490498852689164 0.296886054281546)
(3.514486415751199 0.3147733102729703 -0.7995827104743544)
(4.950241457650493 0.06896055596883385 0.005265069025137015)
(4.583956638398577 -0.2000794773731521 0.4731420695424098)
(4.769686145631791 0.046976765244859 0.2718657245197181)
(3.9654652524733 0.3029494782704931 0.4228786685681057)
(4.890957445512348 -0.03879944590203459 -0.1021283061216068)
(4.633888700970234 0.151887134633833 -0.1463368915246613)
(4.375975720995365 -13.34997819362358 5.259923920687416)
(5.043137078997757 0.02858908948848084 0.05255046463476008)
(2.875535839397826 0.06823822547620186 -0.2572987118484462)
(4.878058779958027 -0.09177867016939409 0.003548097634132105)
(5.020332629154118 0.01518154910334471 0.05933673297261927)
(4.960934023190102 0.2600288321183252 -0.1254489924486914)
(4.903276638917466 0.2350425446226032 0.1480823656173603)
(4.993377936637463 0.002536737423031305 0.001653452376709463)
(4.963579981019874 -0.02619129819935967 -0.0007713968415402312)
(4.935698341216558 0.1489954262833858 -0.03091401668468039)
(5.015345441091472 0.1113773468240707 -0.2738819469760241)
(3.364330322873981 -0.8651842982047799 0.1207327052149891)
(4.16655073613025 -0.2862222658744197 -0.02057513253488651)
(5.05249808424067 0.009834663073186372 0.07391805644315)
(4.406420507020057 0.03160960310027808 -0.1997142468549768)
(5.000647260728868 -0.03056011688997104 0.02682447784915964)
(4.991989413589063 0.02194298747262146 0.1423439428161245)
(4.95370965807806 0.4208774233747616 0.1109998832584393)
(4.173931676202726 0.9124751401892732 0.08592228867515553)
(5.092664581011517 -0.0161902397734154 -0.01419449354594238)
(4.98323233086533 0.07279145186157011 0.02171503395429146)
(5.042670891103286 0.03285032393672475 0.107602916637169)
(4.690718428090022 -0.00500880260811852 -0.1135371140244786)
(4.965123615016607 -0.01411031458509394 0.007549556080233047)
(5.024840995875913 0.1462089476862881 -0.1318215071182885)
(5.000800444832835 0.009243183691067679 -0.002213524913571631)
(2.586654818793194 -0.08548037969633739 -0.02440384196089884)
(4.44807544385116 -0.1030932624758964 -0.130850743434944)
(5.011529536341844 0.1761103549297965 0.7443696927609434)
(5.051567245501301 0.07446075488280599 0.1937020384221698)
(4.913732956983644 0.1772679519397758 -0.01201873231471694)
(3.057706099018338 -0.003822683091518578 -0.295624374421238)
(5.029747719487998 0.1536131111015767 -0.0006023255306056505)
(5.024231952953498 0.1898829017995663 0.3492787584000484)
(4.592842166643891 0.06690960531592534 0.1291714289726617)
(4.972872824131379 0.002006303651550073 -0.004266130428184786)
(3.725610265162216 0.1065515163391919 0.09547698410365391)
(5.080207350352807 -0.05514197373786055 0.03794863183295771)
(4.995660740997603 0.02324545945563711 0.01070295458581898)
(5.17485479369017 0.04131987213787282 -0.1658622027694531)
(4.496429576436399 0.02266856360053534 -0.0588379216292812)
(4.980039160976718 0.1234246818745436 0.06478913622878757)
(4.270663490088379 0.02596648396229494 0.1368450024689888)
(5.062102244795251 0.0388815860284876 0.00993491556610351)
(5.003375798221657 0.05491294738374755 -0.0436599645979503)
(5.053508165938442 -0.06506502080418528 -0.02352122939179106)
(5.055510826402943 -0.03489267279607972 -0.03485785186456661)
(4.999194379214607 0.0113061602964283 0.0187269600945479)
(3.531986631287285 0.4688155656598572 -0.9925219752940178)
(4.944085369469729 -0.01311990453873657 0.01351387305355079)
(5.010387136531536 0.0005754402825268235 0.08621774263152843)
(3.446372762609418 -0.105049183735378 0.05026395367711575)
(5.05306709345176 0.05396491669519645 0.04896451035027506)
(4.617972035623383 -0.1440343512591334 -0.1804257616130698)
(4.940678204263167 -0.06258500802058865 0.005017587089630106)
(4.392650496329184 -0.02442847617547909 -0.02802041758303188)
(4.253133044044072 0.01305270122453184 -0.3240225491043774)
(5.179226451627883 0.1248441920687466 -0.08113706313445315)
(3.170248197901615 -0.2656180002446877 -0.006599203780908858)
(4.313107426179903 0.4526064237219103 0.1545857930256013)
(5.074435052810006 0.11896505565048 -0.1100030640116997)
(2.105333478899254 -0.4484794316542949 0.06272533941664632)
(4.995233355767304 0.08584688759651754 0.02508277170177033)
(5.09739937614792 0.06047178338718995 0.1153643263900315)
(4.248229067055476 0.1079810795070815 -0.1331342919265604)
(4.972484467218756 0.1428457121945548 0.01653609495217685)
(5.039861601153208 0.1448440411182828 0.06231638547189738)
(5.052151826313976 0.1426096116165681 0.09626960879096406)
(4.830714704401915 -0.1476468097719349 0.1478349752539382)
(4.946305300266628 0.378948452252908 -0.4323305377218846)
(4.279894211592235 -0.1702788122078198 0.01685993864044621)
(5.158248048930808 0.2549340841331181 -0.6776864776441419)
(5.042107681923916 0.1151956664821687 0.06739522269330596)
(5.015661595885444 -0.003410375183175113 -0.003448452174099931)
(4.588441436312436 0.08476673126279852 -0.3087922324766911)
(5.054345534765979 0.2222673454135801 0.2587244210309376)
(1.198404894176472 -0.3812734579638379 -0.4767282556837472)
(5.089670726677024 0.1155963456433937 -0.1283819057489164)
(2.978004630565021 0.040577740137588 -0.6793783352760647)
(5.054238919733937 0.2290573747281781 0.01529500148050029)
(4.952754442095707 -0.03283923703538624 -0.3631105962854292)
(3.302659269616175 0.07484048639858773 -0.03033864477864269)
(2.686082094910008 0.2385506027501389 0.2525782087232195)
(2.874924143217264 -0.4642156154648902 -0.8052692895724735)
(4.408415422744293 -0.07512942797411143 -0.1153335428361933)
(4.980971794533962 -0.01227064762026289 0.04178032349475215)
(4.953432648662504 0.02079015319124973 -0.03891678978979152)
(5.003573837799995 0.1278972168898032 0.06803031905223574)
(5.020565058491997 0.07120826066529723 0.03422995578244412)
(4.952970430696984 -0.08237692837062226 -0.07420763459445899)
(4.995404857181835 0.1438794848090261 -0.01860282275037796)
(4.990432748484078 0.006510857417188309 0.05044831079469383)
(5.067764975695318 0.1036227635782284 -0.1020874670874809)
(3.178968415525639 0.2535458700383634 -0.03481214367432943)
(5.003904020014146 -0.03447829640235169 -0.06089689438439396)
(4.869738547122301 -0.09678244099027603 0.0346167308607415)
(4.883501467881312 0.1318358743546463 -0.01556571009581046)
(5.027186047030888 0.03816669503779924 0.1267295678913553)
(4.30952953210867 0.1908143657239479 0.4578060524441131)
(5.053719664093883 0.1163151234126391 -0.1187875540693654)
(4.5304141140593 -0.05055772776102239 0.03061165563723495)
(5.024315506317589 0.01003770579352181 0.05228155216585519)
(5.020514863010151 0.1817352230541608 0.009173772880593936)
(5.068538023561304 0.07721025092904726 0.09936551429819625)
(5.005800640520628 0.1017934999739143 -0.07407645148519117)
(4.996272678556845 0.04068675930924978 0.005094423846681565)
(4.988044146578817 0.01414629913002033 0.01483466806593321)
(4.890975227349246 0.2711388392183908 -0.09867980486867459)
(5.015613973703234 0.05910302610494278 0.03359989788521533)
(4.946681630273219 0.04439536741375604 -0.06680864884967713)
(4.996444360621301 0.002165122991870853 0.001739007653562499)
(5.023541723463784 0.08994968274064857 -0.009050205972807871)
(3.941757190609867 0.1587632594722982 0.1334954517794328)
(4.636876006847587 0.1243240592835167 0.02325693639625603)
(4.979628607780642 0.02136024439428746 0.03376084096657331)
(5.019118135626197 0.009342786569734987 -0.02980305709585236)
(0.9268973827518696 0.8325026986900783 2.40831851242096)
(5.016926779506558 0.05104414232201263 0.01144822212897014)
(4.938097219408307 -0.02845161479704532 -0.001116792038562618)
(4.908190824695366 0.0999969261933709 0.01678028623100608)
(4.966122838524402 0.03681635019535326 0.003063394549852581)
(4.655155090967571 0.08079736807766022 0.03631657504786933)
(1.385479076542413 0.5020685108696401 -0.4906651346226072)
(4.952486213552381 0.1821136614058037 -0.04195848693163979)
(4.599812207455082 -0.2413415790772082 -0.2646921218886751)
(4.93155132806536 0.004917915440539472 0.01160754749883139)
(4.969018462584997 -0.007625597152839052 0.05772934301350546)
(2.588974346050246 0.01483552961611437 0.1922833332861588)
(2.633356791603919 -0.2029428257574193 0.2171964322858857)
(4.960976186702897 0.01116203692931253 -0.05608706062010368)
(1.89225731635027 0.1719534607703502 0.0987536602399903)
(5.000257258728113 0.008776547085304095 0.03158382144536011)
(5.03697093052768 -0.02556086122126703 -0.009954415814039601)
(4.958383573926691 0.1844557464959748 0.1024416716246278)
(4.997577088743053 -0.001508441255690608 0.002789974437735706)
(2.223122632323427 0.1738811156366817 -0.02650958363866042)
(4.952859398366454 0.1208274069179464 0.1071463225805176)
(1.941298769722789 -0.01566990307664892 -0.184087650618042)
(5.050885963023775 -0.00111819149000239 0.07077618375372063)
(4.835944662690897 -0.05965042334842886 0.02475114350144358)
(4.346245237423862 -0.08475008198363088 -0.02844713392290726)
(4.945685593013767 0.01586520859176772 0.05513384234583583)
(1.994420136250491 -0.06373629849687401 0.01917120151023764)
(4.300843582200734 0.04467391639658548 -0.07028771280714062)
(4.788304747383018 -0.01444735439576388 0.04391807165065813)
(4.717487884186075 -0.1676518465736749 -0.06495853700233054)
(5.012911414274752 0.1917879950835196 0.09758328933330382)
(4.934477637440361 0.07363054904435992 0.2841095037438505)
(4.973142420144713 -0.01659456910105604 -0.006259490963589366)
(3.954715946144483 -0.04660618291390278 0.09978672503396371)
(4.998684234938912 0.3322141823264467 0.02342201067977796)
(4.987362645031244 0.00510136606867519 -0.005089354374395336)
(4.992682836241874 0.0257906731492812 0.002788166890175055)
(4.894697784011369 0.1547045795989166 0.04479440471906664)
(4.464947814483011 0.08214185080473668 -0.3682487891409668)
(5.02953875508238 0.01175861423324579 -0.05000127326958342)
(5.060578502389182 0.09811540106789934 0.09962460862060903)
(2.103612690740742 -0.170292396358538 0.1025532442223388)
(4.020680280966329 -0.0961637677928857 0.263801738606508)
(4.996349197776294 0.003714474546495177 -0.01403886128701227)
(4.933000689340886 0.08522852795417805 0.1809039960411244)
(4.910388203777871 0.03019844420143569 -0.2539344734140208)
(5.105726520866839 -0.0566098410249172 -0.1671625394336914)
(4.826847500405886 0.3586955851700079 -0.170405379885892)
(3.808018709019103 -0.1522918700448891 -0.2201085931852491)
(4.599548211141778 0.1244759543392178 0.1511076619439043)
(5.092597896846663 0.05750552586716996 -0.01898669930940205)
(5.047633357735706 0.09134095007063017 -0.2525742589620971)
(4.987327692576846 0.07636669746401958 0.0490111816202428)
(1.444072503632927 -0.1804699678207697 -0.1207220100230158)
(2.357856149855029 -0.134200438145385 0.1530647466002047)
(4.287855412982203 0.2681748397017815 0.2528955219588976)
(4.993610678924814 0.03157742715555731 0.03439354631261945)
(4.704365453280175 -0.09102949966454942 0.0002625157983540231)
(5.012447507586149 -0.006342449304236617 9.276155058695902e-06)
(3.919118321568186 -0.2297523059502869 -0.2368679543674088)
(4.869456179558404 0.1483688464507753 -0.01780496885429368)
(4.901178246161543 0.1086244540467009 -0.001748271436382272)
(5.091006933904963 0.005273677996292268 0.02768302119679718)
(4.63775893745928 0.07977291019349397 0.1280034826666279)
(4.728839082411416 0.09075280570564613 -0.10223187944651)
(4.961087462046742 0.08560184760221065 0.1041039143666671)