/*--------------------------------*- C++ -*----------------------------------*\
| =========                 |                                                 |
| \\      /  F ield         | OpenFOAM: The Open Source CFD Toolbox           |
|  \\    /   O peration     | Version:  v1906                                 |
|   \\  /    A nd           | Web:      www.OpenFOAM.com                      |
|    \\/     M anipulation  |                                                 |
\*---------------------------------------------------------------------------*/
FoamFile
{
    version     2.0;
    format      ascii;
    class       volVectorField;
    location    "2";
    object      vorticity;
}
// * * * * * * * * * * * * * * * * * * * * * * * * * * * * * * * * * * * * * //

dimensions      [0 0 -1 0 0 0 0];


internalField   nonuniform List<vector> 
19631
(
(-0.0004474328606485362 0.0002557438207933006 0.03717569372765016)
(0.5477379662612158 -0.4939581328026538 -8.376753859103395)
(0.04722180370578697 0.02552269713831844 0.01115181428338664)
(4.296091183992568 -7.147369566790308 -32.43826663077812)
(0.09929170222442488 -0.3544305679681296 -0.5620417077680773)
(0.4766816614655319 -0.2063112492998238 0.04773581920421052)
(0.04111347106125492 -0.0271468611770513 0.07060985714715143)
(0.943829905211645 7.480165982236916 -5.478989360659385)
(-1.909869478831334 -2.759584377516882 -4.085775896856944)
(-0.09438456607991426 -0.01810103283642324 0.0166475324678035)
(-0.2201002607668714 0.1142498856721954 -0.3733547593301991)
(-0.4631455001856404 0.8710348121833693 -0.3161427914329493)
(-0.3161841281033402 0.5569613330014359 -19.64022367871351)
(-0.4512100575319715 0.7500718969337965 -0.4999681728623265)
(0.007033758079640989 0.006028621852371014 -0.01043616910351522)
(1.695599213214746 0.6678288527766099 -2.306461954257258)
(-0.9430093383121467 0.3278030951064315 -0.1532193366164466)
(-1.096495158787503 3.577832460494497 7.784848529393009)
(0.1571785547259306 5.510157246902932 2.023765046138415)
(-1.2859290983831 4.167500516954338 -2.515904308687146)
(-0.04873485771663435 0.02423165349969496 0.01823335605766624)
(-0.2745195135966952 -0.1307636983941061 -0.1398693027852872)
(-0.4608563577165 0.7951196485840824 1.764200250514245)
(-0.03302284768187256 -0.00218975862881606 -0.01769074442056517)
(0.06753277185072748 -0.1889450302050519 -0.2814345571084617)
(-0.07654337601230982 -0.01138499242466613 -5.511502749317839)
(-0.5180304024995241 -0.3741242003665873 -0.8104603906536247)
(0.4386308485362465 -0.04665087022072478 -5.536059218404549)
(0.6970862044663696 0.395512837326482 0.5444158583809453)
(0.006981873020414539 -1.915436486665551e-05 -0.01623158220913219)
(-0.3777933795153663 -0.00806700548907022 0.07421132996237648)
(-0.7020610532921676 -0.2914947623149283 -0.004293451694954861)
(1.589855942027323 -6.802107879534883 0.3801708630424582)
(-0.05118437484549785 -0.01308433940679859 -0.03099362097775065)
(3.803477911379116 -2.739931762926211 -1.912455751147037)
(0.7820803230285465 2.087497087241234 2.328222661530182)
(0.02136021929726471 -0.05169580488416813 -0.07687265999501344)
(-0.4066244587459166 0.6953211852254263 1.564286174260788)
(-0.4208176058641052 0.5824979958999441 -0.8808009561603101)
(-0.01469504147592693 -0.7615825641515472 0.9728218965162589)
(-8.437285330552299 2.707915563884996 -2.706046078226826)
(0.1302663331756493 0.2328526910850075 -0.03106723890722846)
(0.05528818796587365 0.01727470458094528 -0.003139181680796293)
(0.08898029735073243 -0.0376744112766766 0.06039021221053573)
(1.75475218211398 1.365684917185562 -4.931799728502504)
(0.1309320046798885 0.6326714611732961 -0.7491636263963726)
(-0.02797426314747778 -0.02295382325521089 -0.01138972445728467)
(-0.351961622468753 -0.2434119511230555 0.04227637011378019)
(0.01847638595642132 0.0277457194692372 0.02063636736007098)
(-0.6209555114799516 -0.1558115602370106 -0.1864923392806264)
(-0.2413839840151052 0.4352524447943056 -7.067398120367581)
(3.340966484007843 0.768772950088472 -1.447297474248617)
(-0.5806061280165029 0.1457400462323628 0.0440326810558645)
(-3.417854199096314 1.669702532469806 -7.777644044781258)
(0.9209137518223528 -0.5192050552769063 0.2241281968568133)
(1.49236084412144 -2.389209921809989 -1.132653802267413)
(0.2612877780758125 0.3285856564106752 -0.2503939271475666)
(1.180414966307018 0.6471130268821793 -1.140551796584645)
(2.115626827604445 -12.43564678700083 -12.33351040773542)
(0.01986506554927277 0.01409404003769705 0.001142826170596363)
(0.01119448899626375 0.00156314640803872 -0.05805849504713687)
(0.6707033347441895 -7.923692256798586 -3.135202843650045)
(1.00265063954822 -11.76886648381916 7.191763274582445)
(0.05486266352498215 -0.01071016783164242 0.08982801388486761)
(-1.302487050652162 0.2867285521478349 -0.2026789562578169)
(6.307923025135032 -8.755605989630226 0.3373957743708949)
(0.111339741294084 0.05016927291159466 0.164583095734349)
(-1.564925975635198 -0.4620584735016844 -0.0676130546614426)
(-0.3329348849001333 0.3627060164382048 0.05701459845461587)
(-0.01737424194578545 -0.02289187954286625 0.02519115916115156)
(-0.01559917448977065 -0.01131555734905934 0.005634349820665309)
(0.8190436413970649 -13.58193469817691 -16.17055629609512)
(0.002300281221769437 0.01661633125336833 0.02450627225534053)
(-0.1163074739874389 0.299586506068084 0.009883370923291036)
(0.4247519815978167 -0.04018150487627989 -0.4090240846990782)
(-0.1949186504643547 0.2912561709340706 -0.4687057232281073)
(0.02559144595720763 0.08491633701336153 0.1275473316845903)
(0.793910809905332 0.9775090074380099 -0.9669742093546492)
(0.6537649032799721 -0.5764553288949019 0.9848756682162064)
(7.259204797518927 -9.008999301067325 -48.27791459172857)
(-0.004400233803816663 0.006376779986689447 -0.05037651070879196)
(-0.5374930822951838 -0.6169837406852051 -0.4536035816578742)
(-0.3356021408830311 -0.07743987056401477 0.03536795493407463)
(1.047522931027562 -0.4137537424711571 -3.362124452837959)
(1.288093998072321 8.038737302966338 0.9769560250409509)
(0.7224382233092618 -44.99934119512474 3.589621049966609)
(-0.3774440113147722 0.005483064235852625 -0.07688554750986885)
(-0.1447968987518303 -1.264936786839307 0.2891285344913329)
(2.650636777948786 11.42606926242634 17.78416794489612)
(-0.06255152297271473 -0.006139145562614712 -0.04746171870452467)
(-0.4587390617734098 -4.143864371090796 -0.5280157794052347)
(-0.1852397222017503 -0.1234674645089516 -0.01172231097744746)
(-0.2629116476768638 -0.2364938830709279 0.05197429362371633)
(-0.04325557754936049 -0.0397519787349872 -0.1141697869069981)
(0.8049808044765128 2.013552241349617 -1.305475187095383)
(0.7060839660076546 23.20172560437685 -0.7141689517987123)
(0.02370243567264887 -0.1045828058102256 0.02256998287313725)
(-0.3109049985737581 -0.702129889118178 -21.5486378992986)
(-0.8588884017644602 0.8698462545910033 0.03664316402203427)
(-0.4390886592791798 -0.3043638614073207 -0.06494831737078947)
(-0.01601552095518825 0.1973216995102411 -0.1054036883692573)
(-2.135415356044134 12.38979983346603 0.65253617416832)
(-6.151295890628659 7.673798735674276 -3.603387429707593)
(0.006470917911750952 0.007241399883556285 0.001503957100268169)
(-0.7185858976300368 -8.853013947748579 -0.1166610799081708)
(-0.5576230155351918 3.060834525548859 0.1142417132539753)
(-2.224248867968248 12.46073433016771 2.814671884027256)
(0.203720917263892 0.06821423493380269 0.2201853468630883)
(-0.06445168073708994 0.003460976757803783 0.2080776187496581)
(-0.791596076704989 -5.855500881396004 -0.5171609611844674)
(-0.342811086427129 0.6125745764524637 0.206348457588195)
(0.9182987192568193 -11.20815352358365 2.663957033944154)
(-3.713272262443628 -3.63532327674776 -3.654630605350357)
(0.8743007824652438 -0.1312164222350983 0.2588908153113139)
(0.4857889843458258 0.2060000117656887 -0.3562500005189687)
(-0.1755709655526398 2.015353424164653 -1.429485043097035)
(-0.1048349874868073 7.716269766351971 1.4735755321814)
(-0.1477997126954765 0.09368879378326642 -0.1241134421069627)
(1.65450762882572 1.882411039571345 0.6308129075934664)
(-0.2263828401904742 0.1936211649675884 -0.05086579695330817)
(0.0326970162109556 0.09926016517681226 0.1462982486105312)
(-0.1101884914293832 0.04521923595320246 -0.1799398829242861)
(0.0058923980830594 0.01820170340016859 -0.1609788980341947)
(3.776257421102226 -1.608606084983309 -7.338448222966049)
(-1.086665114578172 0.1611342029029472 -0.7414131151945589)
(-0.2386224206401023 -0.2353920911449062 -0.06625248521269952)
(-1.434321548959073 1.037573681846745 0.5575618927177317)
(-0.1950707775511262 0.5207102960343726 -0.0005589457800128962)
(-0.02316417993521074 0.01547237249775686 -0.003942120263459633)
(1.311313357288669 -1.216995195935517 -1.784807611639739)
(0.02779874532710241 0.0147508552315787 -0.03148125524387262)
(-0.05918313650175512 0.001434663213994344 -0.03384568003226435)
(0.2364224461167996 -0.2726556347263809 -0.09474210505408009)
(-0.6413816302283738 -2.741767251013115 -7.40616796141668)
(0.05045167968324188 0.07570699199421603 0.03250665162435201)
(0.3013058994087054 24.95935350650476 -13.28769611301979)
(2.441625581980482 3.10677123606998 4.175144246728181)
(-1.988431057855599 -0.2824166672455319 0.1948537785560635)
(-1.698501392515111 8.569566413691362 -28.84023308059922)
(0.8692556894204228 0.3479340532786526 -0.3468394643583975)
(0.08897070207126584 5.885120895173674 -1.238729734995015)
(0.4301781122744844 1.864207046797625 -6.240872241707052)
(-0.517099579157289 -0.0723671458458448 -2.323641132033377)
(-0.01375567305529045 0.02545911211779951 0.01827006288949194)
(0.2760235083113698 -0.1659770740988584 -0.2781698580254106)
(-1.284556302382267 0.6281154269660953 -8.997136103592279)
(-0.001676379744984639 0.01900951325138121 0.004250090218954481)
(-0.008976284355080492 -0.01442502198387053 0.02003903592762217)
(0.02912560572205663 0.02804360347082677 0.02276778067675123)
(-0.00162029504582023 7.511970658204579 -3.811667196422035)
(-0.3511691159431552 0.08466960801390218 -0.02357051056704017)
(-0.09348416185767409 -0.06248649725508729 -0.1021509666579854)
(0.116111251136926 -0.06098074691528617 -0.03604484155826934)
(-0.2845554648990712 0.1785769294196014 -0.09086591802190951)
(0.1316278044473921 0.03729615030117858 0.062995195170678)
(-0.06458864706466783 0.1127824056870138 -0.198007666460212)
(0.02936895507079195 -0.01370917281832167 0.01658441679430023)
(-0.1763209296964219 -0.8850392050365894 -0.3529072655210843)
(-2.328151734936342 34.25848230447572 4.864908527755465)
(-0.003784816087367096 0.1339321859171552 -8.35049979667304)
(-0.1462520045201922 0.03493525016396025 0.09336732054138469)
(-0.01285844910273396 -0.01146521239891148 0.008836503663173803)
(-0.3194907737208629 -0.008191313430643984 0.04443761505410212)
(-0.2489599370625745 -0.006294433665960854 0.09466144475909292)
(-0.0555726390759804 -0.01046867964208899 -5.449666526746405)
(-0.03328705212585623 -0.01113009036851759 -4.949402343629766)
(0.02267434431184182 -0.02814621802994509 -0.09069936252062832)
(0.0386338874677864 -0.000976612501298605 0.09163627296679742)
(-2.65821682900566 -6.174156519575874 1.548694390113861)
(0.05836760863682251 -0.06798266679977774 -0.008522602582220491)
(-0.09309107785268836 0.1439096512880206 0.2535384065595478)
(-0.1470392618946978 0.4781612667830127 0.4520072156645386)
(-0.5900171304654516 0.8503230188693276 -0.3387845776330659)
(-0.3443824648514401 0.2035956538133517 0.01493288793028846)
(-0.09684442412048697 -0.06961696656746771 0.08670314295544494)
(-0.3600285580458789 -0.3262302066630681 -0.3907103353157116)
(-0.0174724529915961 -0.04738248679630919 -0.00310304831172998)
(-0.2142576477292405 -0.1012705750678779 -0.2381361261951187)
(0.147112223525559 -0.110546002636187 -0.2206224875299467)
(-4.273511775203568 0.9572281540206892 -4.096102006291599)
(0.2585273660354425 0.9820509441703025 0.5515303925329325)
(-0.06189993864300571 -0.01563916879609752 0.0302528463510092)
(0.04344349825379348 0.02676072489611596 0.01188637628265566)
(0.03917785550624979 0.01286308156168395 -5.319081245214274)
(-0.02636314147127271 -0.004518192528854523 -0.03738327690574256)
(-0.04627406317537384 -0.006261361154294428 -0.07434872702854078)
(-0.009059239242946491 -0.1546794340308224 -0.3323240639604529)
(-0.1944937762843016 0.2519318043635567 -0.08183846240949426)
(-0.3445185392740166 0.01415230214456657 -0.394670850151172)
(-0.07911962573800063 0.03824393825106051 0.0415206324414318)
(0.08924684714926481 -0.0263490110611577 0.04399859306092515)
(0.2499586964627129 -0.2480110820022313 -0.023699955176975)
(-0.1507498180085353 -0.5532199206346826 0.493672393007512)
(-0.01999290721379419 0.001913473858301529 -0.01761751610802372)
(-0.6604405192213207 0.04924833581172293 -0.4500716570370469)
(-1.92086925411058 -3.880452919297356 -0.4659818466734559)
(-0.3868268423367542 -0.2023510359657454 -0.3517428825995941)
(0.01052567666364743 -0.0007027209293146638 -0.01135174465421254)
(-0.2051472952017995 -0.1030001937959831 0.03624036957546541)
(-0.06889796645828167 -0.01098927206763765 0.1175259965985063)
(-0.1402558159721109 0.1227223257972456 0.08128629718837538)
(-0.0825441432380246 0.1520141275901535 -0.1531292740124837)
(-0.1554665607084897 -0.03340205325752173 0.0856991757092635)
(-0.1168686531970226 -0.02088892418566167 -0.1237498584090695)
(-0.001208187337598294 -0.03543611613875031 -0.04081039211238309)
(-0.03785705278000462 0.4826973601026642 -0.3674921193501614)
(0.07060276486342068 0.08399641216137352 0.02369598310713845)
(-0.4202023238166847 0.1163504230946202 -0.6666972624213111)
(-0.03471383836597678 0.0745321234290352 -4.624193070233408)
(0.03275443246307493 -0.76974654577158 -0.103198801726439)
(-0.02848454335005205 -0.1068378844365859 -0.01143017884087676)
(-1.135591976556821 -0.112162400571045 -0.1711756245306596)
(4.438888318637527 -5.92643874231492 -12.82882795842466)
(0.08194431486305694 0.03167382112530998 0.01348782247077365)
(0.1011838123871866 0.04685022650387884 0.02341700780995334)
(-1.368353770859329 -1.037318577923012 -1.99718385121962)
(0.04263883472826595 0.01823311427375166 -0.03080276468145717)
(-0.0003085185902822508 0.04724875583265103 -0.02326998428049144)
(0.09359619987031489 0.0005720278961258486 -0.04454637697859112)
(1.21222598717811 7.417445086874591 -5.001233372486528)
(0.7008665212000313 0.01231632678905738 -0.1084012492825508)
(0.1148943761938774 -0.1164450759484765 -0.312606996810784)
(-0.04722944938675293 -0.06571782276340699 0.04450078902076506)
(-0.002448465694835397 0.003370230002402913 -0.005423144906541168)
(-0.02230991203068011 0.005876602036936708 -0.0143383145087034)
(-0.02065624654910616 -0.07566105341648863 0.06540597080074423)
(-0.0799167457474407 0.03314445061399888 0.06901418115643529)
(-0.2901544116053135 -0.03914422385261453 -0.002090096099168867)
(2.615739965653966 5.738351157211728 9.100230720505854)
(0.8713023696948882 -4.463074334779193 4.277667563061154)
(0.01125019405544905 0.03453223518158111 0.03321254046861349)
(-1.797001579594589 -0.2129547067323794 2.736366172501792)
(-0.06424162849613851 0.5465129665900483 0.9340161089335215)
(3.914156665833462 9.967567601642354 -5.111634599210229)
(2.022569137927249 -0.8173745081882182 -5.855164975080966)
(-0.1376289246033675 2.041445385899479 -2.290850850771104)
(1.886429279165015 8.209175181279853 0.7476566283697217)
(-0.7536308136880279 -1.20098299446351 -2.905801833668197)
(-0.8545908144704724 -0.06486957035685786 -0.1612986437466183)
(-2.476779617826157 -4.801827025492945 0.9179637334934252)
(0.06682613272681788 0.01511161764117533 0.06103650681811863)
(0.4453801054817098 -0.05464629752962351 -0.5776689709438034)
(-0.1363406374223341 -0.09454854326629476 -0.02757758133198361)
(0.4191954193984406 -0.03954335492407511 0.2604898811004995)
(0.05181255645487854 -0.003535237064313614 0.02402859687302583)
(-0.3700062331053588 -0.5787485918538088 -5.025907676978153)
(0.06146687408622845 -0.1232131816603805 -4.781627938655046)
(0.01275500958066433 -0.001446699618305976 -0.005902290823020224)
(1.351961088352898 0.1325565713686541 1.717346730662704)
(0.1211853141844928 -0.01759784162305408 -0.03124817358623984)
(-0.5778162995622746 -2.724928864994716 0.9693489211790114)
(2.367354666929793 1.391662071612751 -3.366205012034122)
(-0.04481930969965797 -0.05867310226705573 -0.05734143666717066)
(-0.6392696506144542 0.1000317533787709 0.1682346627946959)
(-0.05238764109443018 -0.02760060375910682 -7.764552568681474)
(1.072625619994827 -1.395056497328791 -0.853995430098531)
(-0.2140615858209437 -1.4869567361658 -0.4599978000895695)
(-1.586703222220625 -35.55577348639045 -2.150930300978982)
(0.03926833011601051 -30.3952382387834 -1.582626605482812)
(-0.09610028405649106 -0.7222936557109404 -0.403941263257205)
(-0.003128988135375779 0.01345213338362804 0.003559207603893435)
(-0.1950576317007293 0.4364315478950057 -1.209282551608033)
(-1.999471006185429 -2.997126677496671 0.09332130512834791)
(0.5534073901654171 -0.1711190119966039 0.1320289165829852)
(-0.1421493862346813 -0.2970601721904074 0.005925761785940054)
(-0.009512305529075168 0.03071331364728656 -0.004219664856376325)
(-0.2079056878611849 -0.06986273056557479 0.09511046184616037)
(0.448994178938638 0.2248625135253494 -0.4098760236354227)
(0.2867687731801847 -25.36504530203521 3.489546149762847)
(-5.455212856079104 -6.445930609625333 -37.70896820689674)
(3.760213009175251 -5.523615090352078 -3.649658061348853)
(-0.115703355113858 -0.005553685226206251 -0.3902965695901789)
(0.08689642664214958 -5.066094901249768 -4.105486505786696)
(0.01009645822389703 -0.005211601198250876 0.002992387611423964)
(1.427621019650197 4.925452762765127 -5.687154929746997)
(-4.303632318291203 -36.08212403771 1.225881598993443)
(0.005065133331859045 0.03778495921205927 -0.005262564147944989)
(0.268834598824195 0.1286718253953411 -7.074462750921684)
(-9.210096142174018 4.19547664082338 8.767583580123503)
(-0.02448739265255265 -0.01145040701519192 -0.02012634150645853)
(0.6559855707882684 -2.43324149066165 0.3478616540272925)
(0.6255020925134094 -1.028952964267592 0.6514816902132368)
(-0.673273229333242 0.8619489060204725 -0.3758970345310485)
(1.141654073515202 3.344939808144018 -45.9729634819151)
(-0.6947289645877343 -5.132186132880992 -2.683488953334818)
(-2.588354204623668 -12.9459960238097 -2.02215505826808)
(0.9655885803397061 -12.75785491260927 -33.82286536224765)
(0.7569492028770015 38.77552771233566 -5.212448730048481)
(-0.1213341026644465 0.09140296468423875 -0.03991588719529567)
(0.6672117560961096 8.922998509924945 -1.47709541073796)
(1.181517007433146 1.975774904053867 -0.05857253491264802)
(-0.3507167665982056 -0.01953605546253803 -0.07798689092865452)
(-0.9290609706068398 0.007724897062536762 0.1529221148719222)
(6.514878615659366 -7.537380077390854 -46.76857644065235)
(-0.7015684025509891 -0.1578905875023792 0.0188035497410586)
(0.001837820155716571 0.001862625619814738 -0.001261879876556404)
(0.7854821276789282 -0.07035905901640389 -0.007654622910027969)
(-2.789295473339334 -0.5261153425776298 -28.45093829542805)
(-0.004013649445089806 0.07905729491800086 -0.05317386941184543)
(-0.7105137055228573 2.048325271879253 -0.826515869094351)
(0.3216597618145425 0.06749276219192635 -1.654819509330751)
(-0.9224769977615725 -1.689231593214167 -4.407592864267341)
(0.645828212148832 1.926827941017992 -1.179686719465943)
(0.003511150854250487 -0.231565132990422 -5.259258727223244)
(38.67224709339057 9.360726808285021 38.88537303327675)
(0.0665312079378015 0.01847005315933364 0.06073996282680958)
(0.4091041075290558 -2.974839481303335 -0.5353840690623115)
(-0.9102913963172877 -1.471096280797801 -1.283627255907005)
(0.09259479473349397 -0.08783620109023857 -0.1386250579050258)
(-0.8031467752536507 -0.5394693267836747 -0.7878148295070928)
(-0.2766663043598996 -2.605361932097964 -0.2896100826031064)
(0.003924437309185951 -0.006178605246050304 0.000126371906686329)
(-0.01644817437658316 -0.01258335789851572 -0.01346772584706796)
(0.03645445341292291 0.1324414327132654 -0.2476112596980713)
(0.3135537546573468 -0.07200300515283679 0.1472686936503062)
(-5.5144727165102 -13.46488670236641 3.828316458932659)
(-4.632443338131755 -13.25639118254774 -2.213150747689546)
(-0.5691837584229494 1.857031177752626 -0.4474804632367235)
(-1.48454792519334 -2.102228920784183 -1.523983770892365)
(-0.002897663483434188 -0.005982179387348745 0.002362056087030053)
(-0.07595472742657584 -0.2639096187502691 -0.2937483690236756)
(-1.422422602984975 1.410606129866924 -1.238989141568339)
(-2.777069977570484 1.252075501896702 2.483430490815135)
(-0.1073368992686775 0.07272443988896374 -0.05185038171403859)
(0.03200431788692405 0.03176348035614487 0.04482009144759434)
(-0.06180110506090766 0.1897674006178344 0.1742903771844758)
(0.6766968678551876 -0.7030347045811933 -18.52816755800579)
(-0.03336417002979183 0.004856271260050552 0.03155489753451519)
(-0.8737591553073293 -0.02309529109752195 -0.1420143602673145)
(-0.001041413664990939 0.007029968933967785 -0.003923129955078692)
(-2.692043479064117 4.847381606870207 -6.612587523127529)
(-0.5234018527175166 -10.10146576698651 -0.9295489224207082)
(0.5822046587734671 -4.689191427827626 -3.68537965475894)
(0.07454110806469416 0.3157808837904063 -0.3174475317234836)
(0.1468606020922752 0.03583984596645838 0.02505680604584545)
(-0.06624057606973749 -0.4302368944230204 0.5288859920335796)
(0.2424536415008103 0.00164282992704556 -0.2528153041568335)
(0.05523137071344364 0.5559652308462798 0.3880057159001092)
(1.060369587910259 3.241167346698739 -1.629922837520406)
(0.009972032763598343 0.000333438016449898 -0.1437144524553219)
(1.879871116168125 0.1843377250505515 -43.16397709039482)
(-0.1556053244493312 -0.0705910053988007 0.3468045689137754)
(0.0105591494243847 0.001343267462716924 -0.0005835648235739152)
(-3.724571612137724 -3.294603069293419 -3.065382525491264)
(-1.369708012463388 -4.276321510618823 -4.709988514343059)
(0.1464813439152961 0.1274525818790744 -0.03152557553500256)
(1.025455222475049 4.583587921329038 2.313043118883289)
(-0.07668239212931137 0.136130751568604 -0.0880003568200725)
(0.01643306620501071 -0.0354938853246982 -0.01560383800644567)
(-0.04984028022475002 -0.02321054052189843 -0.03100858979651963)
(0.2169074457217525 0.06912877257294922 0.1331091709660889)
(-0.008866296659399083 0.002469789224073224 -0.01504783085540506)
(3.850249573432228 1.569290609677159 -4.682690719211663)
(-0.2077739922763107 0.03767232060823172 -0.7366137472312209)
(0.007867308869304271 0.2759406940300284 0.1103025614912995)
(-0.8240423399389906 4.768482104548861 4.295595205540568)
(-0.1321265887262204 -0.0605454395618704 -0.06526428646003674)
(0.3452803615914761 0.449069104237941 -1.012909160992627)
(-1.054485548637534 -1.593733609742248 -19.42498651769965)
(-1.682248637992182 1.865557486299381 -3.199928599605284)
(1.294523049253694 -4.183389709581448 -0.05883654656036548)
(-1.705003853808814 -5.428484832701945 0.7965081054796758)
(-0.6816524545611944 11.68349000432485 2.503791347331978)
(0.7939458881480795 -0.3938203329051171 2.063923911363112)
(0.03832347268306423 -0.1744889096863605 0.181729250514736)
(-2.023592966779939 0.5371771294346197 -6.951949705793449)
(0.001274641079683788 0.02559768268341914 -0.02949951943296049)
(-0.1886307806470973 0.04130054481881296 -0.2738278653680473)
(-1.062263510659347 -6.557004803253084 -0.4774067094622028)
(-0.1986118733590734 -0.01364287192126547 -0.06810864308900944)
(-0.471378468800792 -0.1065275905022988 -0.06578158100689391)
(0.4173163607532939 -0.1081761066221487 -0.092684383406965)
(-0.3803514937294926 1.228420163989427 -1.180239843816325)
(-0.2740860133025767 0.07413785177149906 -0.1932002152417266)
(3.579150327790159 -4.0966850441306 -2.83002651194416)
(0.1227089924162879 0.6895652527800266 0.4624183284309773)
(-0.347044760155708 0.04456517333970043 0.09650522712463799)
(-0.01049744927806773 0.006467649240514475 -0.02599500999454244)
(-1.208155043820898 -1.199717604328581 -16.01163104939935)
(0.1338874788808959 0.8650604686493135 -0.5524191719127656)
(2.460409137084923 26.39715979913368 3.178133369448324)
(0.03019339114364522 -0.06741338292561783 -0.1644027880052871)
(6.007965389712766 -7.940881969512537 -5.141240253943261)
(0.2827160892277026 -0.08355972100804915 0.4078964832102542)
(1.360166054544256 -1.793597832457285 -1.337855825464739)
(5.884913093199377 -1.87627326485559 2.373912027825558)
(-1.126572856988767 3.624113487761381 3.559478960319459)
(1.511087547962698 1.687910684998662 -22.94094221432319)
(-0.4490884355527985 -4.924160062820247 2.857431976810445)
(-0.03280509269949581 0.06062376122458771 0.01125355946117246)
(0.3289220259114412 -0.09490341033520538 0.06998697917016347)
(-0.1464982482556514 -0.1436547110159991 0.2334296476480279)
(-0.02739420874841959 0.008839359541658844 -0.003526573245679795)
(0.03580079074289212 0.2097645519974236 0.09454380919641479)
(-0.1096522402963398 -0.07255734188385213 -5.512927929460781)
(0.01554049604908697 -0.0053989169089191 0.02056058518143704)
(0.4337316287783357 0.03073293051553069 0.1488491869279813)
(0.2842146388013919 -0.0974714743423659 -24.20256909648058)
(-0.02427047468366244 -0.03078404531397967 0.03079709588890741)
(-0.2198153630940033 1.165038140103581 0.009867388987256087)
(0.3322102090476095 -0.2412808177126311 -0.4323889542673482)
(0.1404060197880166 -0.03991403288772524 0.06670552208509198)
(3.874548718678382 8.01244523789088 -4.813549049053741)
(0.007033320818445857 -0.02458336908083753 -0.00474819144440524)
(0.2733695685740801 -0.1754324961207974 -3.449418129183745)
(0.01337618086464161 -0.03813385061424257 -0.08239648258690324)
(0.01601534244666489 -0.06178840984690125 0.1024992020099758)
(0.009624334002847582 0.02112368417014669 -0.03934079082604178)
(1.070581182760532 -0.04513284283025089 -0.003844172223851756)
(-0.04352070703177922 -0.03815018065797375 0.02665144762586498)
(0.09733981238401271 0.02147775818285848 -0.062175501408884)
(1.078100199512169 0.09221736729728996 -0.5523749285140834)
(0.01772856132252533 0.02223148450703832 -0.1155830208867594)
(0.4054722418256694 -0.08386580112503694 -0.193902986630248)
(0.01390949587600086 0.008178858160475729 -0.006049024532309093)
(-0.01345631884335328 -0.05639954035039031 0.1032227438791173)
(-3.002165762392792 59.10819644475528 -9.710768935318903)
(-1.810304402090768 -1.057082417279608 -2.64640492918732)
(-0.01517081642754637 -0.03181269500141281 -0.04868981689316639)
(0.08780548763438384 0.01227092678130299 -0.00676456189801217)
(-1.854916724043583 46.6468664322821 13.91320046245167)
(-0.2697247327562369 0.2372402168462724 -0.01637843614323248)
(0.07976611349572216 0.06420503747147276 -0.03811715938754243)
(-1.130014745675454 1.033906448974515 0.7337246318021292)
(-0.02667260379720899 0.0199571605743371 -4.993105087089475)
(1.68543878547869 -0.7479693577827959 -1.736709804552269)
(7.869176507053333 2.853796735144353 6.038183884836585)
(0.4662432044581233 -0.1005876117422458 0.06237014054734156)
(0.4431736023226336 -6.260577773822316 -0.6689626330443084)
(0.006260330044203952 -0.03391428359120906 -4.769612967773511)
(0.006014582030998754 -0.03534022356113284 -0.03863473012617736)
(0.5725682823449147 54.56173952187673 2.581826722672249)
(1.024497693696343 41.68606347934238 -4.861264599708475)
(-0.05995686130295852 -0.08437526153712134 -4.989112096509492)
(4.429501527894061 5.585843023241592 9.26396614545639)
(0.0947677817191782 -0.01727031329850662 0.04607446655406706)
(-0.6095248356902726 1.046418159789106 0.2017678555742995)
(-0.01533793598591329 -0.1234594361124669 -0.01883119523224247)
(0.0001992690684143844 0.003311141032420335 0.001479628438477643)
(0.169381002281905 -25.53541056351559 -0.7456432148462316)
(-0.8812882430083968 -0.1323654587273994 -0.1382142187689774)
(-1.098916099545519 -41.02026697281496 -4.292691461087482)
(0.01840740191385001 -0.06806091397268922 0.1802041453719806)
(-0.6019262239116409 -2.586171104662403 1.533584682714781)
(-1.231081484964059 -2.060431026005817 -0.5684007177450757)
(0.07133540708031781 -0.1145594350950809 -0.03562262635879715)
(2.307195067478405 28.99025196783263 -1.398482062785413)
(-0.2621429522362211 0.1649169957475971 0.4708752234417293)
(-1.202694680433571 4.88769251378249 1.139684473480074)
(1.346978201107562 -2.633153533311326 -4.324047562016073)
(-0.2391592372503545 0.1758286808264105 -0.2647457493026129)
(0.4222425659438067 0.9997673984210624 -0.9840650487774822)
(0.1787026940288652 -0.1519284664336742 -0.1118637050933504)
(0.03369319640208768 -1.38133871556327 -23.51474320907554)
(0.02866303885520911 -0.9877532070764337 -0.3600646844815648)
(0.02043819267553073 -0.01262730531385442 -0.01697035365721855)
(0.1153612230861818 0.0415505073079552 -0.1421304112391998)
(0.2814145757248172 0.3719968344923641 0.4224975932379639)
(4.148942162300937 -3.93181299921365 -4.210934531039157)
(-0.07480688013062314 0.07955488277967071 -0.07690113516317862)
(-0.2560192505972521 0.1276102509979753 -0.179647880247009)
(2.523483634191654 16.62347640593712 -9.751164720975424)
(-0.05631693723750344 7.659806950267436 0.2810112621417484)
(0.008848366411192469 0.01133865503476089 -0.01538191268326808)
(0.1942415350166219 1.987003682187223 0.3549658829534591)
(-3.191610159526769 -3.048068744931986 -2.080429110310831)
(0.9956984624806141 -0.4492192275572034 -1.487648665726371)
(6.120520552469464 1.143967667312261 0.9284340761494693)
(-2.976288523888779 -3.522554314526785 -0.3040562528592288)
(3.201381065183093 -1.212919119491903 -2.733988558764292)
(0.0766310712120869 -0.07940054988153784 0.9749906076351921)
(-1.208420781737451 0.66845288389145 0.20029068170883)
(0.01675481051968648 -0.00716259045005397 0.04030614888824196)
(1.894273637054895 -0.4503880498969632 -29.07827221919608)
(3.325373470851764 33.74774287641011 -4.168829561897436)
(-1.012594656000571 -3.670098222784354 -23.73454478056428)
(-0.005590781350719928 0.001271932465818525 0.01936869711706747)
(0.3528524466301284 -0.6974634691280763 -2.314719805491122)
(0.009722304581187865 -0.003064833439948602 0.001601174427920035)