/*--------------------------------*- C++ -*----------------------------------*\
| =========                 |                                                 |
| \\      /  F ield         | OpenFOAM: The Open Source CFD Toolbox           |
|  \\    /   O peration     | Version:  v1906                                 |
|   \\  /    A nd           | Web:      www.OpenFOAM.com                      |
|    \\/     M anipulation  |                                                 |
\*---------------------------------------------------------------------------*/
FoamFile
{
    version     2.0;
    format      ascii;
    class       volVectorField;
    location    "1.2";
    object      U;
}
// * * * * * * * * * * * * * * * * * * * * * * * * * * * * * * * * * * * * * //

dimensions      [0 1 -1 0 0 0 0];


internalField   nonuniform List<vector> 
19631
(
(5.039385547201086 0.02987382513695008 0.05052087759523183)
(4.922387741091885 0.1116575275789851 -0.1153438076987417)
(4.996440510565996 0.03611516886665544 -0.05137782979148204)
(3.920164815659059 -0.4417254816638692 0.952890475904634)
(5.01641835629812 0.06499116650143132 -0.1201142022408123)
(5.069670303663126 -0.05687661470255661 -0.008989949192701028)
(4.985555642301879 0.006552218317036982 -0.005226380209562264)
(2.182245435914517 -0.1463689425690576 0.01307206463991098)
(3.925289843312021 -0.2237715725445029 -0.193560632335331)
(5.008686128024824 0.01869588753104066 -5.875304145516054e-05)
(5.014389593951888 0.1074283357536282 -0.04443819194697679)
(5.065759137935849 -0.01526819176151458 0.01227917106138716)
(4.483225492782928 0.1149428552977594 -0.502100449971272)
(5.078066154755988 -0.01987483039145155 0.01703334247593513)
(5.00212416732895 -0.001912384945799982 0.001786787108496829)
(4.992226656336546 0.2320993923419428 -0.0910131949036382)
(5.079162091122878 0.05204504425470933 -0.02654888617844758)
(4.215279196208413 -0.9612463438251488 -0.3532445958926237)
(4.620943430926789 -0.0424459444222242 0.1042856155748884)
(4.437927708321073 -0.06424959828182118 -0.2560409997947783)
(5.028863993265026 0.0652897570357311 0.03475034869966195)
(5.082962837779475 0.03461721084787479 0.07066750835009478)
(4.432802428765464 0.3466634585343112 0.4324422882920063)
(4.978311486942569 -0.01111749493133676 -0.0007059579074030621)
(5.102648717415406 0.02581702528624133 0.07753005244654108)
(4.988888057599437 0.0587550078586757 -0.01257171716492998)
(5.092615476436725 -0.05186578203767048 0.009846227907818233)
(3.884109305067769 -0.02755105241479076 0.5775205694312089)
(5.042620063414391 0.1588703144805135 0.1667949931429913)
(5.004049374741157 -0.002958163749440323 -0.0004878672738125514)
(5.082075037550932 0.001043041337329709 0.0657612579238034)
(5.08702768885705 -0.001260096275377227 0.04142970950993578)
(4.833342983031606 0.01179069240112951 -0.2328720390735159)
(5.065511850800825 -0.04304159261818407 0.04571174338294552)
(4.451371843326941 0.1715985166094727 0.1658970510124478)
(4.391651638989125 0.3295260980131864 -0.4213440968503649)
(4.929847321659797 -0.03884027311413255 -0.0009144709671812161)
(5.064786448283576 0.2589214852111252 -0.1194091011977273)
(5.088828059235953 0.01659239581837908 0.001406895519414781)
(5.092985735425177 0.1132748051087237 -0.248119610912774)
(4.720752872550443 -0.02125549882515516 0.03442493358040438)
(5.007946214283781 0.03938690927499632 0.0207614260643339)
(4.99797788383238 0.003897067754537608 -0.001188753867120827)
(4.988907014799566 0.07056995233706566 0.04883890527022123)
(4.247603908408347 -0.2079738036196405 -1.232952962331738)
(4.474197967839834 -0.2484288805399805 0.3070816525227233)
(5.002866764487534 0.007082045640534488 -0.001114478001145541)
(4.98192859134553 0.07686384738196629 0.0651975656437692)
(5.046734715433072 0.03497973774443758 0.05466723644960513)
(5.110901797627969 0.01209431031621164 0.03046540440758433)
(4.757841762221085 0.05519837588332119 -0.06773105818202867)
(4.743700280081007 0.05532823024143065 -0.02774644414108976)
(5.100146616016388 -0.017463537282606 0.05487985392199282)
(4.188004371624101 0.2649533754225783 -0.4039165868567676)
(4.99641476193942 -0.008768940630711852 0.08353940970019261)
(4.72828016362629 0.1182767433739241 0.04887241055077542)
(5.116087874517033 -0.03589500514088937 0.06012512145429048)
(5.094242267069163 -0.03632988775074589 0.04021650974993777)
(3.661737254407252 0.2213600816074317 0.7164410735915745)
(4.999789470707047 0.006494295310232958 0.005635900502623749)
(5.010005355550789 0.006330619126376953 0.001353173004089788)
(2.369413455785658 -0.1561127203374231 -0.05756691784228068)
(3.235143510960277 -0.2258364205248856 -0.2117382361375154)
(5.017172693381404 0.07291478862998076 -0.02573668096952993)
(5.074054174533258 0.01372887831813967 0.03436577213043061)
(3.376651236072367 -0.2778770121666982 -0.5425398265825089)
(5.080520743766518 0.003622044532641605 0.06342385512300287)
(5.095974298018852 0.008852085659150249 0.05444649676595881)
(4.909157876259054 0.0482853404311929 0.02071307455848196)
(5.013783851756525 0.004577402378938234 -0.002415993936517835)
(5.009782889781229 0.01316849821135021 -0.001858203162662269)
(3.736193234390479 0.9243066849217618 -0.7725436418318132)
(4.996785793045295 0.008674940203894775 -0.05857620533082836)
(5.086696954139798 -0.006826555502864429 0.05265345574477408)
(5.098047489653096 0.0457990405795789 0.09919585282326929)
(5.032511018421399 -0.02310406321613882 -0.07964532438160125)
(5.038813711225208 0.01226287906479803 0.04350954862453326)
(4.975036052466645 0.1745196259676291 -0.05770827240689151)
(4.773041561500074 -0.1578554751204329 0.1745018283033924)
(1.201744365393485 -0.1569584644581268 0.09333129251051797)
(5.003406208827509 -0.0273073965523852 0.007105038708149223)
(4.986921830916629 0.1151889924255446 0.04880238719588903)
(4.930864181061277 0.1632555536335661 0.06588393763559618)
(5.069037047667067 0.1236795749833019 0.2370862280591486)
(1.79485615699047 -0.09282751719976291 -0.1551415996665256)
(2.209900405791386 0.1301354554120148 -0.4862493482351187)
(5.10264194526752 -0.02518038904220757 0.03865434922692861)
(4.918078591674015 -0.05192659697591629 -0.07365667760189498)
(2.356427076177594 -0.2214011256240065 -0.1613338700724905)
(5.02850974856229 0.05905240847803869 0.05985069887159719)
(2.685543119379168 0.8389358960119664 0.1151425678056079)
(5.092561177939848 -0.006760023109907003 0.05025113470601752)
(5.088324850600127 0.003397530726028251 0.05793228948459483)
(5.089649321626361 -0.0300354355244266 0.03552627576451212)
(5.095831381417632 -0.09016140930433046 0.116069489225585)
(3.033653103241928 0.1814911004893934 0.2063950601681687)
(5.160564317154946 0.04356695810644108 -0.103864982957819)
(2.672878645020442 0.1910870089094232 -0.03953856563099988)
(5.088476888457804 -0.03142557355069413 0.0292133249353795)
(5.0682064482969 0.02169646567548899 0.02829946989282288)
(5.089731186563071 0.001649454382566089 0.04999982751528209)
(3.482067504972224 0.2463808218990135 -0.3660724484889738)
(3.551657784844612 -0.1723073019780635 -0.04322641624090455)
(5.035507977207724 0.05218042733344183 0.02706558457975484)
(3.741593123911557 0.1116808525225317 -0.08334021746166553)
(4.536030775382276 -0.04684684511455771 -0.1785506231749851)
(3.333323044091809 -0.07986762667613785 0.318257415577613)
(5.092884719211168 -0.005383544783839518 0.09098885914575026)
(5.122014941251284 -0.03576649024256482 0.05826661235572426)
(3.670881572760311 -0.027728987093942 0.3745492697349168)
(4.923632514765531 0.1812331096481812 -0.03448375404503498)
(4.922926078398731 0.1330824716409616 -0.09301150334538126)
(5.186791913005218 -0.1120632254699869 -0.04339154302223599)
(4.618367399506777 0.1338053959942024 -0.4242791482342188)
(5.053290781815556 0.007407311945012178 -0.0349317482609332)
(4.960740150063804 -0.04656720782765857 0.01850731777773421)
(3.23700389918591 0.4898853935569959 -0.09588504464084727)
(5.093412229381316 -0.03081395991693011 0.02961408892064585)
(5.053247431577824 -0.006811715804323621 -0.05925396140133144)
(5.088448656575055 -0.01498793564579541 0.04639118902686581)
(5.086865990340194 -0.01843917594740453 0.03244966517756172)
(5.101123689497321 -0.03491082848392524 0.01710934012593671)
(5.101091694138999 -0.02043628501933957 0.01198788770706173)
(3.646840818205213 -0.2054424362847783 0.3647026708271751)
(5.083718196546615 -0.0114250902817281 0.01904560952087644)
(5.064799496197572 0.003157422779546182 0.04520604244686829)
(4.950832739620718 0.1125560135725704 -0.05925635520677809)
(5.075640827866648 -0.009262259063802557 -0.02510719740225269)
(5.017573876704716 -0.002061395833249236 0.004138910723442312)
(4.419165609677202 0.07603948844229198 0.1226173821127285)
(5.039528929132664 0.00653430701917757 -0.002040771263182969)
(5.035452387582205 0.02614651382277984 0.06408395296618427)
(5.084961614188931 0.06998027672773695 -0.1376862694210924)
(3.060748545033996 -0.1117380288356325 -0.6685964241302528)
(5.021550781254549 0.1204267997804785 -0.05333066885693664)
(4.036724420312681 0.4857091272853533 -0.3380047368747824)
(3.677623967322612 0.4634804707135227 0.1812449771511643)
(5.140277941834224 -0.05455465663742178 0.01823442328620026)
(2.522407589453203 0.5775746824088205 -0.1139193268871165)
(5.07097797230225 -0.1049037587110032 0.08764769787029884)
(2.954528401930806 -0.2217981119532285 -0.0544772852343017)
(4.390290302941489 0.04712087717595995 -0.2530264061972938)
(4.479736825386263 -0.1185535791643419 0.1643902993888936)
(4.986163093718221 0.00952278514919932 -0.002199254974141748)
(5.140049055271057 -0.04390984400375189 -0.0006562485278780983)
(4.637421815888719 0.6701482451981097 0.03105599146135956)
(5.041629643157745 -0.002370007504113869 0.03973134438190006)
(5.019077150401048 0.004923224844706738 0.002652825459677346)
(4.986552143780176 -0.0009503820948572764 0.01361316073874731)
(3.296013656797382 -0.1076352564405274 -0.004348895262134688)
(5.098479933972095 -0.009216482849361204 0.06654623657335274)
(5.078227445229448 0.01868297226624847 0.07463079266447803)
(5.084098590306696 0.0131520978140368 0.08741055180288188)
(5.069747878649614 -0.00606872149884814 0.03669013920589073)
(5.083368470118679 0.0006115954290379982 0.0761673899235316)
(5.012351244127916 0.03566463302588463 0.0876247571151474)
(4.988011886026967 0.005485535974041483 -0.0009904585474584751)
(4.998726834157944 0.1184262170826985 0.3120488195275962)
(2.604619800186774 -0.02248888557762812 0.1629343551987454)
(4.751626797970284 -0.01061765450732871 0.0005275062417301386)
(5.080806671301247 -0.004130174673463037 0.02528992373479334)
(4.995324634779062 0.02403925077237044 -0.003532661893369072)
(5.081121982912183 -0.001596204887731797 0.0251305951307956)
(5.088717762973614 -0.02452780958579809 0.02275870298850694)
(4.978948407597979 0.01756682722776338 0.005978302685109817)
(4.98262560595709 0.0628905497325285 -0.02672604165597814)
(5.096800053611002 -0.02414799270402227 0.004909860934105583)
(5.034254785907708 0.01051036722031855 -0.003239984657154618)
(3.645471604091633 -0.1376009582829233 -0.3024698099824431)
(5.036576746794348 0.05952083094453784 0.04952353925980381)
(5.099280385565649 -0.05208799353415602 -0.04120185838600479)
(5.084782723720116 -0.03808090129129918 0.02467900939704501)
(5.119457651634638 -0.07134147459657605 0.06884070592480993)
(5.078653204024945 -0.0009872789477150404 0.02565434149196742)
(5.074060482384094 0.002241596446109179 0.07858754224026036)
(5.105482638119082 -0.0184030810390537 0.0473662092418243)
(4.998005133665043 0.01257322432418099 -0.0008579954752736881)
(5.111724737496695 0.001110715620527173 0.07569114838148282)
(5.053669148307738 0.03676121083119287 0.09983260641858875)
(4.328736835510901 0.1033281606123148 0.2634866857137587)
(5.08979084278782 -0.039481249007927 0.01721283734478824)
(4.997053865936998 0.006986291804331527 -0.0001538835449864652)
(4.995234250609133 0.001116202966023981 0.006957879214964774)
(4.697879114811524 0.09979207053944289 0.09551314206465991)
(5.008237760855121 -0.007988709116125698 0.002556860309714207)
(4.970673775471559 -0.009943526359499504 0.007522753272741278)
(5.007062026502414 -0.009477747704383329 0.02034256385437063)
(5.081879878007846 -0.004972512571652944 0.0118031987438288)
(5.092598578415174 0.002024941425492337 0.07295988577997976)
(5.073235040892266 0.002901998889364452 0.04760717436925535)
(5.086402797849318 -0.006195448566008873 0.03580044766986226)
(5.002005381642022 -0.05801401212960959 -0.02213870816637669)
(4.989304756337845 -0.02897486293259154 0.1185803045884661)
(4.995085315614794 0.002990197283930415 0.003474068839303405)
(5.117935565927816 0.004845035919062555 0.03876615289682676)
(4.743449006667621 0.1137614348879395 -0.6635343646384009)
(5.117430387708422 -0.0121243552961576 0.0406731985789965)
(5.024043671770618 0.03317896285049091 0.02594672779570583)
(4.974903619107716 0.05698009066139724 -0.03271707358096151)
(4.970627214418638 0.06047615052367868 -0.04948371970982608)
(5.081286879936066 -0.005773797970075823 -0.0107622120357221)
(5.079205176307215 -0.01724368440033905 0.01151274098995129)
(5.004754270061327 0.007000557586183386 -0.01401128738132646)
(5.097164859007932 -0.01107157597953929 -0.0004634375532599429)
(5.003000457878374 0.004790109907764741 0.003642328600167104)
(5.093422166347152 -0.05237143879822796 0.05453646787860146)
(5.047895228968319 0.03843577043536069 -0.02583660630435566)
(5.069420560283987 -0.01222072231209907 0.01746342213941575)
(4.774968262726734 0.01437680383431759 -0.07487253088690274)
(5.093220879876586 0.01761715375266698 0.01983118363394938)
(4.981576358892503 -0.003196363882970998 -0.02549193212003924)
(5.077939857800032 0.00165407668693403 0.01899813097381841)
(4.304949874529996 0.4243843274536382 -0.9209031257662883)
(5.019658833419854 0.001414464725892144 0.02098470549593871)
(5.048058781412949 -0.02705900214977494 0.09888166024511738)
(5.180037528853124 -0.4702464242621973 0.6818294663941871)
(5.014763720318473 0.006596983399696929 0.006326676315030835)
(5.008304958918011 0.005750466966388803 0.005614162085425399)
(5.018794891809369 0.01116609910081316 0.007284194541629301)
(3.685527082783786 0.004869935392001052 0.09862018810951217)
(4.996343221756286 -0.0166210675174669 -0.01141742717418285)
(4.949369872752257 -0.05079122527329221 -0.07000312822960759)
(4.97417236391665 0.05162686362256666 -0.02492992188291281)
(4.99951842111687 0.0006442957526084969 -0.00200186408363017)
(5.021960217489752 -0.006330365378029459 0.002624844784584625)
(4.994064463721965 0.07229622208649401 0.04042525760990474)
(5.070714979165794 -0.01935598302120239 -0.06951391036828539)
(5.042497261779538 0.005755390191316217 -0.07421683417674277)
(0.702569816421144 -0.09449801920824899 -0.2062475905082323)
(3.781843672780245 0.003110658663923238 -0.1398271993224948)
(4.990383781536813 0.0004216346137005215 -0.02640418854564284)
(0.03134445405739933 -0.01418046552892088 -0.001772804191254927)
(0.00636935696850849 -0.01377728105168444 0.006667918819535179)
(3.401808910089909 -0.03619788571218405 0.09368929658707865)
(3.846586182847106 -0.06380659682504042 -0.1278528103225827)
(4.98827748998673 0.2201059669179987 0.2691993837063678)
(4.815481244089429 0.2342978950647311 -0.2209480088814022)
(4.965618746630953 -0.1538557819660863 0.08360309753482006)
(5.026488171979775 -0.09500337118711602 -0.09390979786463388)
(3.302827532537964 0.2584899444315595 0.3887134313331361)
(4.957238683922932 0.006700144104780166 0.005109528604228922)
(5.139928422696102 -0.04779843951420418 0.01037620567719388)
(4.987610369744439 0.007256080382204242 0.007989879524591575)
(5.036089983208099 0.03782028044247344 -0.01423772954413038)
(4.9849856242062 0.01066065865543434 -0.01137434627388067)
(4.985828278348696 -0.1255475404534662 -0.2093867050181457)
(4.946574264338222 0.02445524353439277 0.03148402925701492)
(4.99096398493439 0.002072997285308356 0.002481485301724499)
(5.083603486392173 0.04874587504818894 0.09790433572643979)
(5.033271271382693 0.01009515982981626 0.03169961926287761)
(4.726333931680671 -0.1447674408660767 -0.0598998082375768)
(4.592318273756795 -0.01753462938782203 0.3048670549555516)
(4.991816827997693 0.07452948756201275 -0.03471143031082253)
(5.129263311310164 -0.2142588839462166 -0.3254795331660462)
(4.951520346301487 0.01443391886560306 -0.005065985481691286)
(4.665797830232722 0.3155007332465999 0.7068638472834237)
(5.082988493896368 -0.04924473198304195 -0.01938193955133089)
(3.437147377177466 0.02893239812499967 -0.1193899568975444)
(1.722956784511046 0.08283940678270518 -0.08474063992296443)
(5.044659068018194 0.0746100307598028 -0.08762480697329889)
(5.001127099254023 0.06064362235556443 -0.04366673827849377)
(5.072478842122387 -0.1184285536944498 -0.03399495247915021)
(4.835521609705357 -0.1143873182764649 -0.0935559918703234)
(4.847838738130696 0.0008720834579016951 0.1290782876115928)
(5.048351920029182 0.03207160875547058 -0.009840682745632247)
(5.006588568986745 0.06231381051474937 -0.02996467271211907)
(4.982575435552985 0.1317476674578917 0.0836182204814899)
(5.092870651176188 -0.0252751208381543 0.02701426752110254)
(1.829651800293733 -0.3554136743279145 0.2958797647105609)
(3.900365624301047 0.04353912097204665 -0.4161024104345969)
(2.561304268862119 -0.1158469877643196 -0.02219231087121515)
(5.000692817451643 0.05569873099793431 -0.05777712891512288)
(3.438993761138845 0.01594779074519238 -0.07220176735399923)
(4.995486419175045 0.0008687677922147313 -0.003157905352191041)
(2.597488478521684 -0.06781389152819177 0.1525516559839686)
(2.185810430844462 -0.0888223794881715 -0.2057782129363142)
(5.001764271633333 0.05031932584904247 -0.01705148619762346)
(4.491470399380497 0.01550665353516487 0.02732618308580511)
(2.958703943078557 -0.5046138654354129 -0.1399354372026126)
(4.994770199650304 0.004886869632707834 -0.003714129587666836)
(4.984998336252251 -0.03203213386433797 0.01557214779312029)
(4.996456679345774 0.009902431486764965 -0.1546380707757118)
(4.908186004051969 0.102329527696014 -0.08773712502912251)
(2.582847088961239 0.4885535493203181 -0.1414054060251726)
(3.076119515144331 0.4189263958635802 -0.213692771845014)
(1.048464963623703 -0.06271430284798811 0.2080629519246373)
(1.918062081609479 -0.01340089564246182 -0.08203343522371748)
(2.626970298145306 0.2055822030871121 0.2891045461866632)
(5.077993798908276 0.02166606345454563 -0.04114581291377057)
(4.154244553448923 -0.1124159447669906 -0.01662852437105967)
(5.177983178432485 -0.0210508054525118 -0.04115166144883747)
(4.98477503650815 0.04257781482705443 -0.02240179249925525)
(5.023380688365301 0.05801446924662592 -0.06510094323291021)
(2.934334337184041 -0.04816687029702406 0.09132731656033129)
(5.101017282234764 0.03693250674509207 0.29165327839158)
(4.998675684101697 0.004779829711025778 0.006749896520399406)
(5.067472093727984 0.01029067908584874 0.1549049085091269)
(3.459795516934027 0.2141837069072074 -0.4212667005162109)
(4.968091145744898 0.0194595997690184 -0.01326121891498112)
(4.671488429521383 0.03167220766283643 0.02766997312236061)
(5.010858041794306 -0.0119280044597919 0.2032931986470546)
(4.21068894799424 -0.1490702360565019 -0.5765073191223182)
(5.132049342353153 0.1396356991519312 0.1572083484753459)
(4.792138857253617 -0.009707374182281837 -0.03653586707291156)
(5.802346334562036 -0.7866076629451328 0.3621465536616314)
(5.041731450133221 0.02429007305164458 0.04484699915550556)
(3.152873869192852 -0.1911713452101852 -0.1204375401390474)
(4.940068413252543 -0.0214927879183275 0.07296705193533834)
(5.041400503173713 0.01845375964614648 0.03238912189330819)
(4.891727751665494 0.5663060886916416 -0.1180753545053572)
(5.010462571975844 0.1602787885126326 -0.06515415252017787)
(5.000489125978369 0.004519931402636938 0.003997977067009261)
(4.998640171725114 0.009090596557402766 0.001379870702773876)
(4.966835769167811 0.006261948262776498 -0.06786173682666427)
(5.034806377015123 0.02542949581800513 -0.2473413152950139)
(3.437259818517112 -0.1111507555893399 -0.1897389894897475)
(4.035676572318967 -0.02169188816746423 0.03330382499026571)
(5.017335126130582 -0.02615689398902814 -0.0333121898798541)
(5.115088400842317 -0.03643821145703712 0.02626258488160034)
(4.98979438013396 -0.002527248444344678 0.01045032412093617)
(5.126707715807787 -0.07135258544356968 0.004596963720178484)
(5.074490396315019 -0.06647662793062632 0.04322371260561773)
(4.042301497582428 0.06378294581920854 -0.1137162024849067)
(5.094671194462388 -0.04567907832078612 0.01337422061032576)
(4.989154796884663 0.05293462262225136 0.02170618036325693)
(5.009123585244606 0.1122249668785254 -0.01933624225133072)
(4.615123373620105 0.06878854731032102 0.1207764116896418)
(4.978902720192097 -0.001403401367616648 0.002590174555597226)
(5.011269017319439 0.05681295718045853 -0.06649944975372289)
(5.00041894968061 0.004563916229974675 -0.00822174141907644)
(2.611314632019095 -0.2321662965541507 -0.03107222413143292)
(4.542161553895576 0.4188774927979176 0.2746896796681023)
(5.063989597480259 0.3152970285737188 0.4656630172229753)
(5.07055265844534 0.1339427171501077 0.1593933632067887)
(4.92440826422473 0.07582828486408767 0.00977777226088857)
(3.381535040052762 0.1474595704713819 -0.01910940789519726)
(4.543887986943658 0.02072371161239325 -0.1722856995999493)
(5.101247968719414 -0.01697505668384322 0.1663770226280605)
(4.700518840861151 -0.07529593810364321 0.2063231671940518)
(4.977436293406497 0.0008990755635880851 -0.0008124679813284632)
(3.626124554382646 -0.0437841215945343 0.007695261617087621)
(5.073880672554026 -0.0994197237399 0.03718430627064086)
(4.992549964936527 0.004333109507272137 0.008850577959105632)
(5.078868839696298 0.3180176715833942 -0.5100807654201193)
(4.425256396000148 -0.1469626299118331 -0.06776451270117111)
(5.018492217105981 0.082385625760583 0.08732816082522793)
(4.368936124469702 0.08560711029224807 0.1051349201825547)
(5.07253546917785 0.01922503647574226 0.02056700641936867)
(5.006866188777152 0.01318427877643647 0.00631191777866209)
(5.035481264864717 0.02358141165507946 0.009268059670259695)
(5.085790349892457 -0.007487739898660335 -0.02883163561544308)
(4.999161304147424 0.002279150549257794 0.0006593028218079664)
(4.15537749053654 -0.4104305733873133 0.1550888608603083)
(4.990612193099698 -0.05301362485887675 -0.0282838561239726)
(5.032068465948283 0.009869711315924562 -0.01019198891483085)
(3.61051759415484 -0.1346559675182794 0.06266928583993603)
(5.04567752280155 0.05028563508961531 0.04410095832164001)
(5.103140293203976 -0.05285398840639145 -0.01483909676550461)
(4.904669624050468 0.2269138157328469 0.02562179256060076)
(4.580064265682569 -0.02240373336794706 0.1986901381319307)
(4.068707589492498 -0.3331715817431444 0.27600006298552)
(5.140181873363824 0.1280025577330733 -0.01702892110019269)
(3.47884894512135 -0.1799281785762093 0.4362918328951361)
(4.48917189382433 -0.1976555342597228 -0.2264834156789437)
(5.090716485174895 0.1060684044802531 -0.09159963873116356)
(3.120180361081499 -0.03159339683812037 0.02466343360209813)
(5.012217700668269 0.05674226096834553 0.02076249674455513)
(5.099713045879149 0.01332584956175714 0.1019976939427279)
(4.259516668681282 0.1217591600473118 -0.1227315993607674)
(4.9188377037484 0.1886467694996337 0.06374111668963083)
(4.978750030570385 0.008076327292189786 0.01607246654015968)
(5.087741928009652 0.1216578565132813 0.07341112238676739)
(4.871290047331846 0.1334338581836123 0.01052526452513381)
(5.001949782406121 0.02149544575095377 -0.03776961594942399)
(4.525884410356136 0.06169898662586678 -0.001963909128050246)
(5.021428888741323 0.04526347667445116 -0.04653818638558172)
(5.039694595516861 0.07756795039176052 0.06241772629815252)
(5.020802542755854 -0.004629421400311413 -0.0005536784371629061)
(5.238687914174561 -0.9739971591992428 -0.03734692106501294)
(4.943028970324773 0.04448474007280557 0.3850660978713674)
(1.195296106126565 0.09128669542022823 -0.06207039086026797)
(5.091894358626923 0.0461838441872115 -0.1475500162072613)
(2.864801462783646 -0.1217264628945043 -0.5564052670738575)
(5.183524474172375 0.9044710972471797 -0.6216919955797555)
(4.968563134175013 0.08506916713419066 0.1107036470288636)
(2.95498084315367 -0.1207633881311841 0.08297593945114197)
(3.593369174126325 -0.03390762955743285 -0.01901717077518518)
(3.278299100141513 0.2568916985492355 -0.07641250464146737)
(4.61874459955817 0.3720499546106024 0.06787191445388767)
(4.999041598727992 0.01824740290012107 0.01812327144860225)
(4.98630746117156 0.0340880876397217 -0.02513144022974015)
(5.001012010118007 0.07832772311646816 0.1160385230285915)
(5.033737804775229 0.03539566302929522 0.03661735769185824)
(5.031972421529251 0.09803190884887392 0.06486883548750517)
(4.962091126512197 0.02493431946813959 -0.0141144926396749)
(5.01355294568121 0.03148833598327777 -0.002843812139699912)
(5.036817566985857 0.02747419751112766 -0.06695298087551954)
(3.468046844064549 0.5104058432144503 -0.1373272218754396)
(4.997761732811343 -0.01919016791900576 -0.02188479911686468)
(4.973675430666682 -0.1704665682531825 -0.01597051876367092)
(4.971200321727366 0.09567233651172195 0.1559443064992497)
(5.041036131399387 0.04672414095906701 -0.0009286933818178223)
(4.318139655512478 0.2834137991650265 0.5480484268660305)
(5.135000373762987 0.1155186003900509 0.1144230585878691)
(4.909946945338769 -0.07860626262602233 -0.06399175357694722)
(5.042595169793058 0.02954791043134596 0.02805947203485553)
(4.998833795903636 0.1092173566008849 -0.01913172228947246)
(5.054003382277564 0.05101085124511819 0.03921773240644964)
(4.986591801664085 0.101280037153594 -0.02827388497429553)
(5.01353868285206 -0.03511865609924714 0.002088193630644226)
(4.989029624501949 0.005900363768729011 -0.007862528123270523)
(4.915977224374203 0.2521705649484068 -0.06971037099630721)
(4.9932183828853 0.009397769790997846 0.005935191037677215)
(4.960465644201131 0.06922124050348769 -0.08144577157804114)
(5.005382430959381 0.0001198112545965969 0.0006769737411536409)
(5.044833134375469 0.08542882706959522 -0.04303738899032575)
(4.343438218860736 0.1974765816124518 0.1777667120429062)
(4.727647916224369 0.03424560297417688 -0.06034936610837791)
(5.004342381451266 0.0008437746986425222 0.00532537119930214)
(5.056865967683438 -0.002143337975527192 -0.02679322906228771)
(1.612658755684321 0.9113741337412661 1.7998437768512)
(5.018677031701628 0.04543857990739548 -0.01769717821162738)
(4.965032603501553 0.002535356417944597 -0.02184492130196602)
(5.02595987768123 0.08709410991270806 0.003824945910515025)
(4.963330064867613 0.01969751814210711 -0.0001413263777203256)
(5.086020281619335 -0.0292906487717828 0.0373339333396487)
(1.667635691675074 0.6423532533598296 0.03415817081217716)
(4.964070172951108 0.1271323202612617 0.04412173058076997)
(4.704850580406183 -0.6110675634624949 -0.562273585607484)
(4.956396375756821 0.01060935883875706 0.003203397146452744)
(4.994434774890472 0.01577260736459787 -0.01761184479428803)
(2.499334521732405 -0.1243758523359242 0.1971080841088883)
(2.623566967162407 -0.2603440999017727 0.150467125408557)
(4.969834232850006 0.01788268057491805 0.004474792396298348)
(2.238528062953949 -0.02355251504431727 0.08901574276140464)
(4.99105815808532 0.01940189006807435 0.02390009097145244)
(5.07470416422007 -0.171884256419214 0.08004589242529039)
(4.991781071184592 0.1733143032166706 0.148410572762288)
(5.000604582894242 0.001324955494756391 -0.001816926632862325)
(2.474757817728728 0.3584720611579201 -0.005642087664508385)
(4.997124319600426 0.1551662190661139 0.06576189625653356)
(2.134778124894041 -0.07576242211421692 -0.1240556115728446)
(5.074449525498559 -0.06845698070646257 0.08047700058354522)
(4.986588170197314 0.004128694251154032 0.0811997225923014)
(4.746729297874483 -0.04641254508865666 -0.01482148458602572)
(4.851196425012843 -0.1545287700621847 0.1261614630399421)
(2.050615739434625 -0.5202994277245921 -0.1864686109262063)
(4.62656360820928 -0.0933112089354934 0.005219404163075684)
(4.921636887006276 -0.1417763658878562 -0.04236641532881644)
(4.912611418769689 0.1202141031149431 -0.009675774516272169)
(4.981065005404371 0.117860625967346 0.04190737682479451)
(4.923716079983902 0.04573629615856115 0.003206000838882051)
(5.034225546153483 0.04211907320543003 0.1766278946398854)
(3.956975126069062 -0.1630693986883025 0.159352581104289)
(5.044492709866349 0.5152616838191469 0.3808961437577726)
(4.986221746494136 -0.00396062982468547 0.005679003781431785)
(4.968289196463248 0.02677391717930431 -0.01211760576371572)
(5.021778747987099 -0.09490984961619217 0.1857328950263114)
(4.365849079651308 0.2508396648875874 0.01448297979825338)
(5.054396446986058 0.04712401274186223 -0.02297004564836889)
(5.030234537128338 0.1965261573835168 0.02147691424129562)
(2.021241018283845 -0.0925995680640925 0.08774122649534022)
(4.244663771427474 -0.6521611673422911 0.329213432075911)
(5.010229399615294 0.0110916745639677 -0.01195352315022979)
(4.940657191429933 0.003749960583681276 -0.05160997074778076)
(5.066010593825632 0.06835981516481138 -0.06049209333948526)
(5.081136301783092 -0.06956076835526877 0.06140168183543804)
(4.726006862984278 0.03279419392339558 0.07072057581168939)
(4.155724149894108 0.0502334325856368 -0.3816312827759945)
(4.689268403973601 0.2094968109610482 0.1883755940339839)
(5.012922448100722 0.05400143851342039 -0.02858636699288324)
(5.207448706705647 0.1086415680718721 -0.1286180616366938)
(4.995584701436166 0.04341151866287848 0.0304835700083622)
(1.95552836481278 0.05267833004378333 -0.2926336529282471)
(2.428137497005894 -0.1352385405283766 0.1007467736796982)
(4.57059368657243 0.02950846895826851 -0.01224654792035602)
(4.997342047936846 0.03446751320725013 0.03049502978861853)
(4.67957876048317 0.08563326516495175 0.1766568358421894)
(4.998304046311691 0.003167935004556762 0.004582780109237254)
(3.987115813748936 0.06223542005651685 -0.1509659562514971)
(4.93365941591315 -0.1529101231597548 -0.1030055426155269)
(4.924924970054201 0.04830427955810394 -0.002015511649242531)