/*--------------------------------*- C++ -*----------------------------------*\
| =========                 |                                                 |
| \\      /  F ield         | OpenFOAM: The Open Source CFD Toolbox           |
|  \\    /   O peration     | Version:  v1906                                 |
|   \\  /    A nd           | Web:      www.OpenFOAM.com                      |
|    \\/     M anipulation  |                                                 |
\*---------------------------------------------------------------------------*/
FoamFile
{
    version     2.0;
    format      ascii;
    class       volVectorField;
    location    "0.1";
    object      U;
}
// * * * * * * * * * * * * * * * * * * * * * * * * * * * * * * * * * * * * * //

dimensions      [0 1 -1 0 0 0 0];


internalField   nonuniform List<vector> 
33857
(
(5.003877274857364 -0.001093510494253887 -0.0003221563593886907)
(5.000215851256502 -9.02948667645799e-05 -2.911148115604016e-05)
(5.000031758106123 -1.444458370293589e-05 4.433930525511132e-06)
(5.003687583725059 -0.001446043912960514 -0.0001213223043460873)
(5.000009909041455 -2.442069603674364e-05 -1.825302763894989e-07)
(5.002272522226457 0.001471382903736098 -0.0003730464121469422)
(5.007967549178955 -0.009036854311022458 -0.0006852249371632126)
(5.000035570976007 0.0001553514247197056 0.000138304966256562)
(5.007940612673337 0.01054928541190464 -0.005016408541688074)
(5.002859117361652 -0.001940346425510536 5.883089340989406e-05)
(5.003348628697713 -0.001761159405495531 -7.481718197974098e-05)
(5.000069251197221 -0.0009435603019682608 -0.0001598434347553736)
(5.000120871082275 -0.0001980563187684417 -4.076349637053891e-05)
(5.003724852660724 -0.001426022540003629 -0.0001503878347392245)
(5.003310733002858 -0.001768211586649539 -2.81616609008005e-06)
(5.004262338821666 -0.0009488133269518679 -0.0003946050512251289)
(5.003801620581682 -0.001014294508936459 -0.0003064401621169095)
(5.003114269951478 -0.004768511160411643 -0.0008203947776544758)
(5.003304774395803 -0.001758723913316224 2.446446364528133e-05)
(4.999956851642148 -0.002089555738188473 0.001144709016641431)
(5.000089785093332 -0.0009797345136706983 4.334930605877921e-07)
(4.999740655740958 -0.004606621043104497 0.002520761871976742)
(5.00247568851015 -0.004174353229764604 -0.001366784861897754)
(5.000232845334192 -0.0008056045800664686 -0.000243574181407149)
(5.004249062547797 0.01173374209994838 0.0008122536847113574)
(5.004003223197479 -0.0006277429665528106 -0.000581434563640551)
(5.00231953777142 -0.003964707376174431 -0.001052307355337412)
(5.001017167078667 -0.001560967434320609 -0.0003235114908956495)
(4.998740493462223 -0.008144775968051495 -0.001692733224041749)
(5.000466233849729 -0.001237898376260574 -0.0001798978748569334)
(5.001078947895102 -0.0001189760595292097 -6.339543518509587e-05)
(5.002210938019171 -0.002799637568066369 0.001003513667065645)
(5.004048132769209 -0.00109939787756773 -0.0002529704225531893)
(5.000377073292092 -0.0009639117449510678 -0.0007188528917206104)
(5.00037237241868 -0.00154296924857074 -0.001038914140654149)
(5.000078354026067 -0.0001009264209373398 3.045664767494889e-05)
(5.000004521599921 0.0001327437924360862 -5.784340015351688e-05)
(5.003411128015272 -0.001440430538829164 0.001345764871755093)
(5.002928573469651 -0.001997393234761089 8.977798911073761e-05)
(5.002022527340839 -0.001620690760618063 3.278605908772838e-05)
(5.004015298028871 -0.003323806466639292 0.00147413269958296)
(4.977384781286126 0.01665275482290388 -0.01402477338890256)
(5.000344987868579 -0.001826409304813012 -0.000241848381469821)
(5.001227443889634 -7.853865433487321e-06 -0.0002043372753489205)
(5.005255389837692 -0.004881410989404793 0.002263369450583372)
(5.000374714035235 -0.00121772363501058 -0.0003100680161920421)
(5.004340079428772 -0.0007435819857215956 -0.0004737399318130949)
(4.997177572667823 -0.00622171425491906 -0.0002691540806467298)
(5.000106667339705 -0.0001067447026097972 -6.200143083923022e-05)
(5.005285157556444 -0.0005888944248050042 0.0001425399009037328)
(5.000947555622631 -0.001306010337179329 -0.0009659571143197633)
(5.003871265526832 -0.001086932704997618 -0.0003306661320427462)
(5.000036045918846 6.20104903533108e-05 3.744149053006044e-05)
(5.001628774380514 -0.001564852184054333 0.002305540022623923)
(5.003878070216943 -0.0009774029818826284 -0.0003963398327820174)
(5.0001422080514 -0.0001307793225097075 -2.994912878062578e-05)
(4.999887480558589 -0.001039111372200358 0.0001953563804239541)
(5.002420053883496 -0.001729240410780142 0.0004233620509632598)
(5.000673010529255 -0.000162885846559028 1.44329258223093e-05)
(5.004438465312811 -0.0003968153721137047 -0.000687496873954725)
(5.000324314947417 9.253663648429894e-05 -0.0001665573586117152)
(5.002222448654885 -0.004590805569106944 -0.0002974868396642662)
(5.004419078042278 -0.0006843316351097866 -0.0007442971579019537)
(4.997625023331111 -5.816095990522487e-05 -5.040817748927376e-05)
(5.003395077552105 0.0003289526388564339 7.453342464594035e-05)
(5.000868537272601 -0.001769994355685534 -0.0006157637568742055)
(5.001007129214562 0.004517733285514412 0.001057036548279989)
(5.003868747782442 -0.0008412548086112842 -0.0006655268131511569)
(5.001020861127153 -0.002339878615120223 0.003769424872348943)
(5.002606061428041 -0.002732432843063732 -0.0005067068245788451)
(5.000056435009313 9.82156796661488e-05 -0.0001131658002415553)
(5.000098641724108 -0.0003422295912474247 5.095580227451255e-05)
(5.003835187412985 -0.0009432533131340201 -0.0003105128108053939)
(5.001031954892629 -0.002157647395009714 -0.0003669698694593595)
(5.002198642337496 0.0003022345557694388 -0.0004899079083501946)
(5.002869105437648 -0.001991934047104833 7.745075511308588e-05)
(5.002991421772549 -0.001867841063178354 -2.906238441557905e-05)
(5.000089094367135 -6.973333891551846e-05 -0.0004324821691724633)
(4.999971595718908 7.081935008877104e-05 -8.307030710165046e-06)
(5.004089680521998 -0.0007087346178641693 -0.0006104806481905039)
(5.001967765124371 -8.633890084637743e-05 -0.0001581391973168302)
(5.00103016973389 -0.002089887870076228 -0.0006222841673085515)
(5.000347493020042 -0.001227063414780633 -0.0001545736607465403)
(5.002979799408008 -0.00191250653461044 -2.370555239599012e-05)
(5.004550706851152 -0.002659480491925188 0.001001791692135142)
(5.000250487334422 0.0001715505583987634 -0.0002392201216760819)
(5.00307027720693 -0.00186219308544876 -2.231232276720066e-05)
(5.001112998295446 -0.002006580212986427 -0.0007814454334318546)
(5.004121460008438 -0.0005087219460499176 -0.000802942977186874)
(5.003143164778307 -0.001857179601614876 -4.578431962549101e-05)
(5.000551803950589 0.0002963262834908417 -0.001368727462259711)
(5.000147902729995 -0.0001317909353084884 -3.136012609314576e-05)
(5.000259958087987 -0.0004069922210233889 -2.260763866587935e-05)
(5.003840836413894 -0.0007784868981883933 -0.0005791313152187008)
(5.001689790205215 -0.001661081088305338 -0.0001626661304305402)
(5.00159017203287 -0.008191824420207423 -0.0007934511427939351)
(5.000703639506554 -0.002388403858804453 0.0002365345900205773)
(5.003772639571941 0.01124360163568243 -0.001160059152302035)
(4.999781196366779 -0.002468156681795361 0.0004528107623197953)
(5.000883195410592 -4.895714462642053e-05 -0.001345442851030523)
(5.0006315845506 -9.559268130818041e-06 -0.001126775788228567)
(5.000177745884337 -0.003018331177687531 0.001951274081707335)
(5.003586286270877 -0.001561742461115669 -6.45059845266004e-05)
(5.004255449718785 -0.0003980560560714142 -0.0008848870375755004)
(5.004391124951426 -0.0006909784710125839 -0.0005642974307718705)
(5.000699099272381 -0.0002224981327847487 -0.001274081595559071)
(5.003449641808289 -0.001652608807369904 -9.562859226064314e-05)
(5.000013744987337 -0.001026431766611047 -0.0001668382644197116)
(5.003392781046309 -0.001700273815666639 -7.819982377361581e-05)
(4.999868663947794 -0.002506968801095579 -0.001922805876989862)
(5.003376736125732 -0.001776888293780065 -6.239205143088778e-05)
(5.000903202846338 0.0005287824003325512 -0.001705096034630884)
(5.00327782800859 -0.001845781776095838 -8.427785620694533e-05)
(5.00370404916224 -0.001319720275427745 -0.0001488391840898232)
(4.969820409045138 0.02511541237222995 0.007487340257246716)
(5.003535083930534 -0.001540191584727923 -7.572326167865495e-05)
(5.003209417146183 -0.001557102259699254 0.0002562631484251261)
(4.999997971433702 -0.0002520257475251847 6.707816428307233e-05)
(5.000428862871551 0.0002227457412468299 9.157740975679896e-05)
(5.000411199454681 0.006270478194841884 -0.0009950164866162053)
(5.000547550415451 -0.001353730904330196 -0.0007053060763168737)
(5.003543887741621 -0.001607964027864381 -9.481700144170152e-05)
(5.003533404959271 -0.001243041462918112 -5.826894620535961e-05)
(5.000287615764917 -0.001223462195916152 0.0002734039477493154)
(5.000076544279787 -9.724284657675297e-05 -2.928831336681777e-05)
(4.588700852302381 -0.02988425814866456 0.01577685578090773)
(5.002383519458713 -0.004984913709214704 -0.0003882963157863365)
(5.001915960563978 -0.002657015477475359 -0.0005568565583832281)
(5.002344387657493 0.002336104210518366 -0.002416918120849475)
(5.000436017776038 -0.0002342739377996793 0.0003927323143992163)
(5.003259766076287 -0.001769463444224113 -6.044071331164341e-05)
(5.002799440141069 -0.00251062817124809 -0.0008733012905025537)
(5.000737865102738 0.002761222203821254 0.0004486980216370188)
(5.018429451308967 0.01509236693457573 0.009741512452598642)
(5.000094763598928 -0.0002452584428907117 9.689800112726765e-05)
(5.004092448391594 9.353419600150278e-05 0.0003713593188518954)
(5.003823847611097 -0.001081834759346054 -0.0003436373556188901)
(5.002008029449454 -0.002227923749047827 0.0008271988390474376)
(4.998017855302804 -0.002213178407082742 0.001761297341577618)
(5.003256055708293 -0.0004007944832194746 0.0004155570910071918)
(5.003535577891265 -0.001832273179758196 -0.0003157162004562963)
(5.011844706617554 0.01393758112951422 0.00268118891243707)
(5.003820433263874 -0.001288939110616846 -0.0001930926321436612)
(5.009906433269492 -0.01104819183198838 -0.002828592359985533)
(5.00149987863783 -0.001877018125578274 -0.0004422314069969996)
(5.000691856636705 -0.0005403620455550156 -2.826810343964015e-05)
(5.000138901678356 7.931192589671196e-05 1.07916720129014e-05)
(5.000311510941721 -0.0004834924558059035 -1.032216966736031e-05)
(4.998541906181407 -0.006650020994657562 -0.0009665687076095881)
(5.003627793055311 -0.001309079605087999 -0.000113512806888533)
(5.000065989914191 -0.0001779825334202562 0.0001009222981835383)
(5.000378599949013 -0.001402559803521123 0.0001489697230550842)
(5.010140994268045 0.0007906833841649021 -0.002099733234500156)
(4.999657701698518 -0.005772708299374459 -0.001431074524287728)
(4.999951393490241 -0.000542398125591496 -0.0009376253069413945)
(5.000091559967649 7.789270757174573e-08 2.165747871763273e-05)
(5.000645660133535 -7.7916805348849e-05 0.0001350561395608726)
(5.000411611659044 -0.0009653252474786596 -0.0002077654636186536)
(5.000581885869083 -6.773484004181122e-05 -0.001232179384062027)
(5.003715280117504 -0.001340637776429276 -0.0001589083914383527)
(5.002893152466027 -0.0005967400286168629 -0.0005817845223398667)
(5.001321046167861 -0.001814341623413347 -0.0007711781662610067)
(5.003520421526344 -0.001590869039122877 -8.957142016704922e-05)
(5.002296833096313 -0.01693414321526328 -0.003204730211209989)
(5.000343480040506 -0.001002653652547213 -0.0009122265949156108)
(5.002801098931072 -0.003365019698007231 -0.002668901655069385)
(5.00443774823096 -0.000737802708751786 -0.000719769226217123)
(5.002419321523388 -0.0001817479494682792 -0.001501643659366556)
(5.00084796076903 -0.0002403548542424195 -0.0002590978472389245)
(5.001599856712515 -0.001883729854207055 -3.663066290348756e-05)
(5.001928304945298 2.026539221788539e-05 -0.0002144795285876495)
(5.002977466982793 -0.001997389708430255 3.376804428419491e-06)
(5.002414709085774 -0.0011354198820792 8.354873021649985e-05)
(5.006599413825914 0.008580143456463567 -0.004467914712674626)
(5.000331858910931 -0.0006989126381441509 -0.0001079737741540828)
(5.004088258834417 0.02373279710997692 -0.008514100979641349)
(5.011400401289159 -0.003464814782774461 0.008695607660225322)
(5.000750323496121 -0.001325806222428091 0.0002824100101065826)
(5.001587835350173 0.001767509173372863 0.04051311416939322)
(5.002025090077217 -0.0003631424743030426 -6.617523898125355e-05)
(5.004149327190387 -0.004146052394336581 -0.0006370282674657083)
(4.994279456495319 -0.0006852087849725014 -0.0001961857106997808)
(5.000073487877922 -0.0002247334962712375 -0.0001026119213284175)
(5.005575787607032 0.003553260325871072 -0.001381815483713186)
(5.002799712313129 -0.0009289027003689662 -0.000332895076173625)
(4.999999761834306 -0.002937130949518169 -8.256656826648234e-05)
(5.00363994233588 -0.001616920135566882 0.0005203633140962554)
(4.99987360834514 -0.003105762111696217 0.000317904566820911)
(5.002454448593995 -0.0005735282257202669 -0.0009814379649626453)
(5.00039927340418 0.000329010625727907 -0.0001929455351111819)
(5.005107730246849 0.002789365927683833 0.0003954783065282702)
(4.966714507418233 0.1066813922300963 0.08893835940600978)
(5.004748749095017 -0.0003941553827159003 -0.0050320088454236)
(5.003380247027801 -0.001562933838903151 -0.001815444954138101)
(5.003994256217294 -0.003108727246869639 -0.002060217313029238)
(5.003090416516653 -0.001891514293838318 8.356593059661082e-06)
(5.004523107132803 -0.001162818938101563 -0.00494593922863042)
(5.002894661148532 -0.0007596298189049149 0.0002050509981268135)
(4.999992666732274 0.0003903695715538388 -0.0003174620948455177)
(5.003051899828464 -0.001688413082527364 9.209114142631503e-05)
(5.003455083859195 0.004580442286324149 0.0006525000355161502)
(5.001357705567051 -0.0005961970338299667 0.0007996285771966438)
(5.003339139302685 -0.001811015640676523 -3.454231876189775e-05)
(5.003072977753332 -0.00190037680424674 -1.951960196931191e-05)
(5.011998914397447 -0.002277393832398079 -3.989242823666161e-06)
(4.999594453616035 -0.003528375184974493 0.0003252986597333675)
(5.000908269107945 -0.008739751063169673 0.0004459478451379978)
(5.00319467520667 -0.001803204942828425 -8.614917990511498e-06)
(4.999924854720366 -0.001287407859085815 -5.390952186525551e-06)
(5.004446133833639 -0.0003156344814956923 0.0004525267047866397)
(5.000479328545565 0.0003908878136922924 -0.0007296727654122879)
(5.000275825278725 -0.001434098863078231 -8.808438426866884e-05)
(5.002176900309915 -0.0007102529879934567 -0.00244433499982327)
(5.000324722897795 -0.00338792226459199 -0.00300474599036199)
(5.000197307935904 -7.810215151758578e-05 -4.144980344749633e-05)
(4.999570829083065 -0.003551864957132443 0.00101204254728388)
(4.995943621715333 -0.005061070813421295 0.004959521195372765)
(5.000174388175675 -0.0007221744835733241 -8.943689531733338e-05)
(5.002529183266469 -0.0001598137150263824 -0.001521507935460825)
(5.00572210739109 -0.0001516997346364133 0.000741773537889217)
(5.00006617734832 1.338841639790161e-05 4.631782507197308e-06)
(4.738177104509391 -0.08887403444807078 -0.05108003985836766)
(5.001149515905043 0.0002061508753723545 0.0001410468360179432)
(5.001093642654936 -0.002574785709296113 0.0001559761502806188)
(5.015042422380994 -0.01990247199525653 -0.01187232668740102)
(5.000624682877401 -0.002377001255707081 -6.238383347061936e-05)
(5.001893310363601 -0.0002412732635627245 0.0001866619028812253)
(5.001330834883592 -0.00030433891615877 -0.002407463744075865)
(5.0025556504035 -0.002626977980590401 0.0005970679505419642)
(4.993651149181794 0.005681570215238533 -0.0436650225886553)
(5.000564311992022 0.0003354652682221388 0.0001084912773630078)
(5.000989022891605 -0.002105517180119386 -0.0002214428411659197)
(5.004391043080059 -0.0008001528318591239 -0.0006266867158988387)
(5.000766545933375 -0.002016122777186811 5.646537566325599e-05)
(5.003146062195365 -0.001438201540936729 0.0001808792706314244)
(5.004077580271418 -0.0009018299618173819 -0.0004746330990092455)
(5.001315400122134 -0.001985571826785703 0.0002176081395522454)
(5.000043990248689 -7.103369205945642e-05 -1.335897055312375e-05)
(5.003513588654593 -0.002174794483633653 -0.001561394949084769)
(5.002786419154945 -0.003232164325078508 -0.004656661457726642)
(5.003033771156314 0.00338918576536762 -0.00336071873413167)
(5.001654733749453 -0.0002787226644991852 -0.002344726875621012)
(5.001486026705869 -0.00211686879411877 -2.655843097119511e-05)
(5.002798456095933 0.004494953171812848 -0.002022948300264212)
(5.005233154890101 0.001097255984480087 -0.001631290898286768)
(5.002934170968808 -0.001853642393971346 -3.487014412031776e-05)
(4.99975904292673 -2.184231371058904e-05 0.0002425813197242833)
(5.000055603481845 -0.0002295578513624415 -8.165414542046612e-05)
(5.003747832728036 -0.001087796695239815 -0.0002842379708145523)
(5.000051558502547 2.335834584399672e-05 -2.761399755956696e-07)
(5.001344946222267 -0.00206427074654814 -0.0003505273134408128)
(4.998941326988587 -0.003039423429297883 0.0002438169594390958)
(5.01341593329581 -0.02964350417851935 -0.01498964115568426)
(4.999981179958238 -0.0007441253856377528 0.0006198577541496133)
(5.000285779989956 -0.0005362035837532973 -7.104837609309075e-05)
(5.000642633761758 -0.001510529638406358 -0.0004309262960404102)
(5.003695656656364 -0.001284831198367602 -0.0001136744590049784)
(5.00541020401094 0.0003242450626643609 -0.001246887328976345)
(5.002268318977813 -0.0002519847434638187 -0.001868209159971901)
(5.004169306869796 -0.0006964064291721303 -0.0007941032107015273)
(5.000401187657088 -0.001311472062620387 4.030668974288033e-05)
(5.0032157990096 -0.001853432599365625 -0.0001056591155602325)
(4.995527061850828 0.01107744582196519 -0.01367762809751472)
(5.000883933528069 0.002097833484098682 5.478577593713013e-05)
(5.001231337975891 7.767219188632175e-06 -4.394932134849538e-05)
(5.009572969212062 0.001587804812750862 0.0002145505148163573)
(5.003190098412428 -0.0005885917214805231 -0.0004913833281942039)
(4.93551972882035 -0.05795169403439788 -0.02586099967098535)
(5.002085617604611 -0.0004985936950604288 0.0003965067803064713)
(4.99964356792938 -0.01222757956590894 0.0008904093918044617)
(5.000102681169795 -0.001599162059063389 0.0001266540978772618)
(5.003763835965955 -0.001104219366603891 -0.0003201648935102906)
(5.004633662832985 6.734597027905702e-06 -0.0005512685866998756)
(5.003834285801839 -0.001099213155608691 -0.0003182069745456567)
(4.999929241861747 -0.001631845500591973 -0.0001229145171427155)
(4.99951404645476 0.0001385968808718903 -3.90886070777813e-05)
(5.003900681703279 -0.001065647264143049 -0.0003745990194379436)
(5.003298121143104 -0.001769364317678592 -5.485192903750117e-05)
(5.000039407253297 0.000234973725549829 0.0001116636950855625)
(5.000031738529607 -7.237371426680993e-05 2.068307406979607e-06)
(4.997066035978593 -0.003378456398927034 0.0005649199269759802)
(4.982288578729768 -0.01204941661252653 0.03028011460927124)
(4.999836076820264 -0.001798789672911122 8.975049098141527e-05)
(5.00333456435727 -0.001731345673799016 -6.530211476673945e-06)
(4.999065282062881 -0.004390528562202986 -0.0009936785120411055)
(5.01521276274052 0.03302665713902246 -0.0004243023036271787)
(5.003597868124221 0.005603729989669285 -0.0004386572330413763)
(5.000151259177119 -3.91273919421753e-05 1.881481380029301e-06)
(5.003159526779919 -0.001663340964713138 -7.681592559626745e-05)
(5.002698916034718 -0.001873028317436987 4.24923424746749e-05)
(5.001080302819761 -0.007015380294483397 0.002109349460275082)
(4.998770925063555 -0.00442135480516442 -0.002882429999141906)
(5.005902390767297 -0.0007159234368450378 0.0001314280358621633)
(5.003703150476503 -0.001318900738869904 -0.0001440098353303998)
(5.011552575071755 0.004182700489576971 -0.007726225865729881)
(5.001234407857948 -0.002312423510361586 -0.0001522756116772831)
(5.007839258769467 0.0008620295034929002 0.0007665235955431605)
(5.003322685661586 -0.001777238803726102 -5.454980909184722e-05)
(5.000193304555101 -6.209172274594619e-05 1.08645287717164e-05)
(3.811432982048962 0.2376578363347678 0.1020054954306149)
(4.999840087534575 -0.004313968995571671 -0.003032505645093326)
(5.000097255994646 0.0003466209172198635 0.000197391321746845)
(5.000154161283975 -0.0001167875616421433 -3.671631987043236e-05)
(4.999561201125596 -0.004106568298339526 0.0003619896748722995)
(4.999938772573636 -0.0007958856137204279 -6.234677371125126e-06)
(5.000405297660993 -0.0006576783334923908 -0.0005726766929315185)
(5.000641875659843 -0.001354086756348148 -0.0007085887966495347)
(5.000412632848041 0.0001287772096370458 0.000175185527727426)
(5.002376626131901 -0.001453305423503514 3.429086050558672e-05)
(5.000144339188796 0.0001066909755188099 6.573546837618563e-05)
(5.00006893027836 -1.018227128209107e-06 1.133085590331349e-06)
(5.00297071821453 -0.001871089866922336 4.822731570479238e-05)
(5.000729881760513 -0.0003319105228045213 4.146631699772139e-05)
(5.001265788007588 -0.001158007482234326 0.0002613062921642261)
(5.00005840273073 -8.425534559993009e-06 1.198300247623186e-05)
(5.000046790485296 -2.941115898762444e-05 -2.264906276952721e-06)
(5.00328266563013 -0.001718538561729957 1.414247311255248e-05)
(5.003719784053228 -0.001008445994373068 -0.0003510633973357733)
(5.003571225582763 0.0001834592022450967 -0.001901178116693168)
(5.000059422498784 -3.07656522823075e-05 -3.033093543518879e-05)
(5.000336405377905 -0.004765274046894221 0.0004625183529362253)
(5.000176377376834 -0.0005631841730872172 0.0001116297054659244)
(4.997843963469255 -0.0002147948478631915 -4.026709744554958e-05)
(5.0006044437815 -0.002068158265334801 -0.0003924795775101929)
(5.003361980714465 -0.001718264946438088 -1.762465975504813e-06)
(5.003513873209049 -0.00152598772503876 -0.0001321780634359093)
(5.00017346786762 -0.001088970547227326 -4.331695063958272e-05)
(5.000225586712861 3.718409559144011e-05 0.0001351694558735298)
(4.998895729147207 -0.0001427831676193433 0.0006530861621209965)
(5.000294598376113 -0.001182142838428598 -0.003374204742484495)
(5.002827000276667 0.003283815961384535 0.0004256942457808753)
(5.00048063099992 0.0002870241196210685 7.960450219063378e-05)
(5.001222348982333 -0.0009639417456786944 0.0006894526739713765)
(5.003372828038779 0.0001302537670697145 -0.002729323081341808)
(4.652106091318455 -0.05980788221144714 0.02448972069719718)
(5.003320689899055 -0.0001363604787531017 -0.00277400791068879)
(5.004988044231872 -0.001997095076770812 0.0007113677535712332)
(5.005320865546266 -0.005253243047896564 -0.0003015287670759601)
(5.000019910261208 -2.37248827356146e-05 6.265498836379006e-06)
(5.003881349396276 -0.001238188683984376 0.0001882616902790738)
(5.002429522319919 -0.0008753381999060761 0.0003095276914128939)
(5.000044412544524 -0.0004883692756638287 0.0002603637001492351)
(5.003252095297116 6.926740901027816e-05 -0.001965170700116343)
(5.000424613052148 -0.001093521765601368 -2.374099931688017e-06)
(5.010838732289791 0.01047641853093022 0.03900957308401515)
(5.006994291311704 -0.001883424532827833 -0.0002719202422639419)
(5.005943847584692 0.007069513374000666 -0.002699551636421351)
(5.004065605335685 -0.0009919201855229385 -0.000297382071238379)
(5.001469240139957 0.0006439213128381954 0.0005389816479497508)
(5.004376486576364 -0.0003691942595185122 -0.0007260126514891408)
(5.001383037399362 -0.0008107253410568665 0.0004801007110341686)
(5.0001248570735 -0.0001708396062892047 8.207726342845348e-06)
(5.003973120840558 -0.001065561948105794 -0.0002556375970783316)
(3.869906943113272 0.02801456208227403 0.007108691279568065)
(4.960620841277084 0.01097745786189176 -0.0004791271567340446)
(5.000244997401504 -0.001288181880478091 2.965653223611685e-06)
(5.000409498580411 -0.001167624941292252 -6.356749851568234e-05)
(4.475044387221415 0.03361428269576123 0.02348043279265953)
(5.003232833437725 -0.00183252855834706 -0.0001080705142823324)
(5.010798721750878 -0.00508790000954721 -0.004206243598441598)
(5.0000274383235 9.645953831191705e-05 0.0006439426934275872)
(5.000176556755589 -5.204619186672932e-06 1.277899198278776e-05)
(5.003237407814733 -0.00183521348602511 -9.635334415589084e-05)
(5.003766900184943 -0.00119991097904447 -0.0002689990175028698)
(4.999354662424468 -0.001200080187034517 -0.001038064588866679)
(5.000092165069391 -0.000477028253642253 -0.0003535749662792418)
(5.000137323410121 -0.0009505796651255056 -1.697057913067134e-05)
(5.004068268882072 0.0002816316212761465 -0.001639744825293502)
(5.000373256713781 -0.001032989914946353 -0.0001097007347000329)
(5.000345371147059 -0.0004574941893351652 1.659665741806388e-05)
(4.997443703438284 -0.01516664898457194 -0.02532910578719525)
(5.003636023613659 -0.001338733450471091 -0.000128670179516473)
(5.003189668791848 -0.002168542384032029 0.002409362645122747)
(5.000611694217589 -0.001017192046226766 -2.803839010523112e-05)
(5.000045482008241 9.980871962026152e-05 1.779518271237103e-05)
(5.003879770163035 -0.001304093297749309 -0.0001555525674334769)
(5.000095565855993 -0.0001217697196237755 3.379875340193649e-05)
(5.007400572218192 0.003971638583463763 -0.0004077712600093786)
(5.000371301140482 -0.001090349366027249 -0.0001325033476836909)
(5.003477440879587 -0.002396834802117209 0.002088977949394291)
(5.000070846553697 0.0001115475087553202 -7.036265940400087e-05)
(5.002874599820634 -0.001963549684144868 -2.279987726371421e-05)
(5.003111562108886 -0.001021210906454602 -0.0004822234100551084)
(5.000486395921476 -0.001815179703798992 0.0001830364246914407)
(5.001630069963688 -0.00329861824996996 3.457936852022812e-05)
(5.002178433794781 0.001780421010398699 0.0001119425559316315)
(5.001478154344425 -0.0008103654182523824 0.0001823151921732201)
(5.000117321810012 -9.401636920759529e-05 -1.763205438224194e-05)
(4.992776232808718 0.002806711627123806 -0.00346074211547195)
(5.002942402669382 -0.0009360980169742564 -0.0001443642138700993)
(5.002882317692922 -0.001946486728221918 -2.710791522757721e-05)
(5.000504590959059 -0.00186612409034249 -0.0004412873801400028)
(5.000260965116563 -0.001245596438782109 -0.0002900549079405042)
(5.001972215755209 -0.001840417240619888 0.002854536335911868)
(5.004128580877993 -0.000905393993473265 -0.0003521462444873287)
(5.001799150297373 0.0001531904397478019 -1.106987844492831e-05)
(5.003130361450077 -0.001714575389722615 0.0003249525664549771)
(5.003616428708948 -0.001400490683965207 -0.0001368440532804593)
(5.000258128831685 -0.0008515304688245285 -6.295617976419712e-05)
(5.003913306587667 -0.001295283532188713 -0.0002943024749497521)
(5.000017429249658 -0.0005556811506478184 0.0007320010210416528)
(5.004049430661259 -0.0008860611735095388 -0.0004016474096333527)
(5.000110255943818 -0.0006817046646829656 -6.927925738100418e-05)
(4.999863703193059 0.0002234000348770471 -4.133841465480773e-05)
(4.999420262711586 5.179082961456244e-05 -1.641976953732202e-05)
(5.00425598272923 -0.0008561555544133592 -0.0004119000430188824)
(5.000111611301106 3.92499565860515e-05 -2.770049860520769e-05)
(5.004629380765962 0.002329702622683178 0.0008111695478878643)
(5.001997746366108 -0.004035199664818497 -0.0005477717260296746)
(4.999473854006762 -0.005636520079165532 0.0004841051281490442)
(5.000628950354051 -0.002201329611870908 0.0002835798748293007)
(5.00378003684338 -0.001174940898435483 -0.0002341841092904573)
(5.004262550663978 -0.0008908359892245373 -0.0004429376103169495)
(5.003362384793681 -0.0002442729116823035 -5.820941296281268e-05)
(5.017629427063548 -0.00596846242752475 -0.06566560567907462)
(5.002499780745379 0.005150720825794646 -0.01316267817382442)
(5.003800560027279 -0.001300029537701694 -0.000148905214649451)
(5.000093236997074 -0.0004143213592900845 -0.0001582714991602948)
(4.907198702821987 0.001346678298144775 -0.007200211121533491)
(5.003352111059958 -0.001590141564698181 -0.0001018773021482448)
(5.007191509938162 -0.04802413871304051 -0.02114890625530793)
(5.001584784064057 -0.002930060117920648 -0.0009003570182579898)
(5.000504705775371 0.0001950313700585585 2.715247230702673e-06)
(4.999972083147413 4.228042086855689e-05 -1.979107950276323e-05)
(4.997685308298006 -0.004058010995290614 -0.001754017869103901)
(5.003573847984307 -0.001513875672435074 -8.085635105643555e-05)
(5.002870356721261 -0.001969131004172528 -1.765834677697296e-05)
(5.002880286801107 0.0006357405659631614 -0.003716323918878429)
(5.001558441912656 -0.003097226953228231 0.002202536898037885)
(5.003189738201347 -0.0004486194294984881 -0.001794244099021897)
(3.446134937983682 -0.009892158398530136 -0.05366963704283904)
(5.002478483226175 -0.002907976923849359 -0.0008745066956292647)
(5.003494280259567 0.001240544109666309 -0.002287145574285701)
(5.003697527622547 0.001177351599513531 -0.002336789361692115)
(5.002910819505468 -0.001939167546903773 -8.733099590656586e-06)
(5.00145222793809 -0.001200427893541511 -0.0002504700573752107)
(5.001381582048205 -0.0008914128672602697 -0.0001456826151508231)
(5.001019603033016 -0.002308017239778791 -0.0001749584700584499)
(5.004092145890714 -0.0005044242633188352 -0.0004654393898168096)
(5.002165923051714 -0.004254703143871867 0.0001414217612713669)
(5.001908549126914 0.0004663123286281638 -7.117913577875645e-05)
(5.003422629406506 -0.001605152902710701 -8.49273035411658e-05)
(5.000055615275988 7.334459349570742e-05 1.477256058814756e-06)
(5.004112498621962 -0.0006611727732942866 -0.0006154353365743273)
(5.000224600344428 -3.921396811285088e-05 -0.0001068883953348616)
(5.002130371236317 -0.01806135099034002 -0.001661511281434698)
(5.003888382080457 -0.001127998480758377 -0.0002756167787225958)
(5.004043112264798 -0.0007651875235665627 -0.000586011902661756)
(5.003971177644046 -0.0005511203666476114 -0.0006652160114942856)
(5.002907626696124 -0.001466693573374789 0.000234267608318623)
(5.000357458733628 -0.0008486801603249283 -0.0001475307017186586)
(5.001021052234809 -0.001124170732430121 -6.177950116294269e-05)
(4.528983757700067 -0.04579170960795226 0.04003942550457024)