/*--------------------------------*- C++ -*----------------------------------*\
| =========                 |                                                 |
| \\      /  F ield         | OpenFOAM: The Open Source CFD Toolbox           |
|  \\    /   O peration     | Version:  v1906                                 |
|   \\  /    A nd           | Web:      www.OpenFOAM.com                      |
|    \\/     M anipulation  |                                                 |
\*---------------------------------------------------------------------------*/
FoamFile
{
    version     2.0;
    format      ascii;
    class       volVectorField;
    location    "0.1";
    object      vorticity;
}
// * * * * * * * * * * * * * * * * * * * * * * * * * * * * * * * * * * * * * //

dimensions      [0 0 -1 0 0 0 0];


internalField   nonuniform List<vector> 
33857
(
(0.005470233604675885 0.001128588945812399 0.004862136767338071)
(3.004518080078029e-07 1.400466927406364e-06 1.247606289753805e-05)
(-2.753047859739711e-06 -1.36827890446687e-06 1.225677487883988e-07)
(-0.003337249845578323 -0.001434642791628075 0.0001973538467694426)
(-2.611125521113282e-06 -2.715669078182616e-06 -3.419534903094942e-06)
(-0.003092478067417426 0.0008217857771742768 -0.001618025028039812)
(0.03147673976328698 0.02204890486044467 0.03477418840182096)
(-1.973681474500752e-05 1.471141765449503e-05 3.052604811546422e-05)
(-0.0007808665331130006 -0.01416207620873534 -0.02150008334626132)
(-0.003000420307712497 -0.000240529178286737 -0.006594597224923371)
(-0.003535741429683214 0.0008975735075064005 -0.003569421128382446)
(0.002141277792923133 -0.0007288309925688953 0.0003685407346759213)
(4.245705711239047e-06 -1.375306920149718e-05 -9.969240578934458e-06)
(-0.004195618520289169 -0.003191439338098027 -0.002146565853340654)
(0.000343599031435464 0.0009374324406086263 -0.00277035917083493)
(0.003176352310980287 0.002533204724522694 -8.364911717122355e-05)
(-0.0005930443910002617 -0.003880009247978554 0.003687219015301806)
(-0.001209816519141875 0.0004600060481075846 0.002808227217118377)
(0.001538749833209673 -0.0003152475542615694 -0.002040586598618695)
(-0.001141248633306577 0.0004304133013731316 7.121901939614785e-05)
(-0.0001485322977950022 -0.0007940685293215985 1.697111594499031e-05)
(0.005780148345757406 0.0007057768516364263 0.001381657879961427)
(0.01620178111194761 0.001501993620960006 -0.003742267028672938)
(-0.0004817774281796225 -0.0002148456379031282 5.285339445432465e-05)
(0.02367101448219567 -0.009249277984370568 0.001894842760013124)
(0.002338722778871383 0.001377977448862447 0.005416944398500752)
(0.002177521019231766 0.003681746538121771 -0.00213440217410668)
(-0.00826799911117398 -0.00405483358948703 0.0009546659622734111)
(-0.007488102101249161 0.01444221595892388 0.002279480508648051)
(-2.99491664966107e-05 0.0005558274434413586 9.588377964594207e-05)
(0.0001135272813254693 2.979817758866143e-05 0.0001194289953599791)
(-0.0003362728656531799 -0.0005427563553850421 0.002419789289650372)
(-0.0001456092832396196 0.001425813944871615 -0.0001775815004750425)
(-0.001147515283223145 -0.001740035841494291 -0.004326834058709386)
(-0.005379176262177232 -0.003977677199560737 0.001956502209673007)
(3.548731282290486e-06 -1.874892828888382e-05 2.673434213226091e-05)
(-1.990603969448214e-05 -2.798982176280588e-05 -8.136181227966535e-05)
(-0.0004335162586906335 0.003428589386467784 -0.01088793433895848)
(0.006359760498565126 0.0005093632819753186 -0.002529846518957571)
(0.001347981121468628 -0.000490983169407858 0.0004891866820812887)
(-0.004178705028276899 0.00167739415409139 0.0008512170904257904)
(-0.08210234821371933 0.1661318720403865 -0.2587404888945028)
(-0.0005269328195795981 9.55138829192648e-05 -0.002917818142656084)
(-0.001416150860681203 0.0001647351741422718 1.120939101821182e-05)
(-0.002404888617526002 -0.0015314052212437 -0.0002434586472590553)
(0.001851887448257042 0.001378473635974096 0.001744938453265462)
(0.0002211679471876352 0.0003232950290674498 0.000631530155137907)
(0.00461140311584333 -0.001228661542761376 -0.003882180620683888)
(2.025534648686524e-06 3.376908001281821e-05 -1.086519914024599e-05)
(-0.0005973589159010341 0.000263791619298023 -0.001274071129337196)
(-0.006414790822176658 0.001334351205129051 -0.001403392681141063)
(0.001160444581504843 -0.0001602037267427808 0.004523342953032567)
(7.787742363962456e-06 -5.056616257673019e-06 4.743940137907047e-06)
(0.002933443333361364 0.0008911200748860048 -0.00226925338266068)
(0.001418101876765406 -0.003942785147274714 -0.0005372093230382761)
(8.758719408484685e-07 -2.440710702778653e-05 -2.090798091928113e-05)
(0.0009179939458223267 -0.0003447085057223881 -0.0002953767205577801)
(-0.002626789490744706 -0.0003871103646361754 -0.0003842887641839665)
(7.546744718612818e-05 -1.671545461914377e-05 -1.874506051918409e-05)
(0.001273115563202326 -0.01130100110603019 -0.009763089838293767)
(-0.0004118246789764589 0.0007897352404643978 -0.001493939453239474)
(-0.0006716633809385237 -0.001952168648331496 0.001624759285217357)
(0.006026294268133772 0.002830452142456114 -0.0004933839744067929)
(4.509773782163626e-05 0.0005594352018869999 -3.376988912485102)
(0.004716508090358435 -0.007486886648367321 0.001705405899556477)
(0.0002999662073776344 -0.001119849022644832 -0.004453557087358951)
(-0.002719976596699442 0.002037803547398998 -0.00232752853649698)
(0.003405935160076269 -0.0001253105960885882 0.0003059286639723589)
(-0.007050871119724097 0.005301049370037392 -0.004485457665323445)
(-0.001111841450446691 -0.002133155728079065 -0.0009265840268654291)
(-1.021899445829312e-05 -7.336570986979393e-06 1.483564206047511e-05)
(-9.166770434933689e-05 -0.0001180357425329576 6.502023420959873e-05)
(0.003852579860117123 -0.002704678175889788 -0.0002338223484160728)
(-0.0007005240381202813 -0.0008675711780739208 0.001855700269402602)
(0.001686403362761839 -0.002565950717220437 0.002106957157712419)
(-0.01244068753984327 -0.001760802289201265 -0.01114851859995372)
(-0.004236683098829694 -0.001826566121568497 -0.01420097425048468)
(-4.652530719386979e-05 -4.12236868498423e-05 -1.532568607354689e-05)
(7.10997694754484e-06 -1.90351550598806e-05 -2.938924853055877e-05)
(0.004317549957133219 0.009107412706913958 0.002026188437896544)
(0.001135415127879785 -0.0008953073349831825 0.0005424884707460961)
(0.004220605655598935 -0.001999422532252494 0.001026391856199028)
(-0.003129411098763011 -0.002081328276675412 0.0004876986075458479)
(-0.002062124631187468 0.00616536653608107 -0.0012768589729611)
(0.01080440996240115 0.01012059533838857 0.00531217477480251)
(-4.607371132490223e-05 8.867103585804232e-05 -1.087430488713037e-05)
(0.00765079640735393 -0.001534580144525953 0.005375826185973724)
(0.002977211552464615 -0.001651570777817707 0.0004545990202798099)
(0.002890663644238459 0.009126439693742454 0.007773799551218487)
(0.002798726786582517 -0.0001607709842547485 0.003261693602291723)
(-0.001284017579307457 -3.560984339811245e-05 -0.001601352507121738)
(6.187827032178865e-05 8.781368835440983e-05 -0.000183729043701724)
(-0.0001326708858510801 -5.637743146733462e-05 -0.0004054096025358534)
(-0.01276236613280767 0.002597216477804367 0.0003115369238801497)
(-4.635122281331798e-05 7.893011089899393e-05 -0.002816529538927789)
(-0.01373093394467107 -0.004273657364478657 -0.0009917184742868148)
(-0.001544703036089732 -0.001005266065568909 0.001918414819133609)
(0.1421910054365987 -0.0167370757395886 0.103167147382764)
(-0.0001584464995897313 0.001136465362871034 0.00113840956567546)
(0.005861743341028133 -0.001496444318225225 0.002382804142345834)
(0.002409163561562476 0.002007064142704189 0.001209130344378557)
(-0.0008998953860169365 0.002029228912758022 0.003091185827046262)
(-0.002046892720931195 0.0002317822316303943 -0.0001955371827202015)
(0.005358206531009238 -0.003585452961405328 -0.003260119999469306)
(-0.003977792984420123 -0.003884670677152377 -0.009923641729431998)
(0.0001578700402916416 -0.001871380346997257 0.0002546633232385206)
(-0.0008242329183461026 -0.0009174229606893388 0.003356682007691634)
(0.0009473005616183545 -0.000589251306359446 0.0006305130439290993)
(-0.0009167785835108762 -0.001120924491353263 0.001909312687864543)
(-0.001392704933477771 0.001244329272888615 0.0004229992580669499)
(-0.0007991007501791272 0.002281364307191233 0.004657934770686904)
(-5.939970316336989e-05 0.001871017112539091 -0.001456187132538772)
(0.001192469643276488 0.0009222962529617739 -0.003519336714861846)
(-0.000548926427638257 -0.002482159737097405 -0.0004285772756320672)
(0.03751746071068938 -0.06192262898358366 -15.58492772649552)
(0.0006545047554843476 0.0013656750363301 9.767694657338271e-05)
(0.0007866523139051328 -0.002199915218201528 -0.001180394009923326)
(0.0001610802672299066 -0.0001600272376527803 -4.945183653752545e-05)
(-1.120027488499408e-05 1.618940389787152e-05 7.59734914424586e-05)
(-0.00458882477339444 -0.007895263456492163 -0.005510928131906837)
(0.0004247920679939892 0.000126896933252529 0.0007343271461649246)
(-0.004231479230721068 -0.000782798792301153 0.0006612245030780135)
(0.001951093253218642 -0.001518249719453541 -0.0001028971969418728)
(-0.002244357164629748 0.0004297130006147444 -0.0003532202771142865)
(5.270102944474798e-06 -9.439176280307748e-07 9.128173185846516e-06)
(-0.9837145028534559 1.830467798044627 -9.284035382329556)
(0.001251276530530353 0.00186689117899763 -0.002449333697728775)
(-0.0007593445674074851 -0.003125929159811625 0.0009974800641786943)
(-0.03103737316659533 -0.001658395406945174 -0.003903469379478174)
(-0.0001791685032380408 9.577167897661099e-05 0.0001638672583094512)
(0.004206411706957597 0.002108937854838262 0.0007817294569305137)
(-0.002566903019247344 -0.001422864121637961 -0.001004369035779716)
(0.001506663425218983 0.0002076623979033216 -0.0005330522516331272)
(0.0520354890261797 -0.02935939414479205 0.061833985044509)
(3.664813240655e-07 3.497423943668128e-05 1.559416612844086e-05)
(0.001837882499684495 -0.000363761375208931 0.001843878235981902)
(0.0008119932305655519 0.004173717669453832 -0.00339394230474727)
(-0.001749443256359449 0.0005004553427652911 -2.558053830260587e-05)
(-0.00659736967104161 0.004902202575856077 0.009432148627487169)
(-0.005031454643837318 0.001883445846075091 0.001037955538111534)
(-0.03750973503337299 0.01213440633747165 0.01189052951331076)
(-0.3814435842535118 0.01476969869530072 0.1738249851543689)
(0.0005562320342729709 0.000163844301962799 0.00341008328080818)
(-0.06826508153898393 -0.03538802615647816 -0.08723173875708394)
(-0.0009310732712943546 -0.0003065679114040532 -0.0002002028990384417)
(-0.000261630875249834 4.405910867730277e-05 -2.723671649676033e-05)
(-1.206207009299638e-06 -1.334256622189459e-05 -1.205476252252492e-05)
(0.0001945209454662349 0.0001784613980574016 -0.0001673748892247571)
(0.05135088483600486 -0.006159721564006078 0.0011388371812583)
(-0.004855183897463657 -0.0002519512606843377 -0.0006260252247427874)
(8.389967858014466e-05 -2.597033280775633e-05 -2.245415543786736e-07)
(-0.0008604337942751472 -0.0002563013441884841 0.0001378807080129808)
(-0.01413854880303226 0.09978014803135082 -0.09417206599608306)
(0.009288376930805373 0.001354243541986919 0.0008045847870438838)
(-0.0008473873121158156 0.0001267440063301502 -0.0001502632623455229)
(-4.70541655516877e-06 -1.456899994086934e-05 8.92914269507739e-07)
(-0.0001953861083179917 -5.043530765954285e-06 0.0001250100017034243)
(0.000858652519002759 0.0008083305450591085 -0.001954281460833842)
(-0.001426666248944036 0.005882597207577527 0.004635454157109357)
(0.003381697747225003 0.003008645152245327 -0.005834587767337104)
(-0.003132095160824255 0.006232937929011772 -0.003012187191305559)
(0.0003185109285106964 -0.0001298099808604157 0.001698925418142182)
(0.0009680054960816081 0.0003578082699475398 0.001997269076776357)
(0.05159895491248114 0.007975052303562468 0.03999955955219882)
(-0.002961587286102269 0.01012120282062857 0.002065754842519775)
(0.004773352298998105 -0.003774655675807383 -0.003719806547416492)
(-0.01177677525153021 0.007050577996409364 -0.01252504744870057)
(0.004534574706063086 -0.00683836866747969 -0.00853429487857486)
(4.395853135033674e-05 -0.0004604806644486077 -0.0002578685238175831)
(0.0010236293647948 0.001193593177198942 0.001483710256224925)
(-0.0002339237275533774 -0.001135800447000494 0.0004382013193189261)
(0.00138117165659461 -0.001652346923266331 -0.02461057757332371)
(-0.001820728721459571 0.001138478066479896 0.001211791634625396)
(-0.1236782320638736 0.04184748003330988 0.1094392937497215)
(0.0003823165863429117 -0.0008291921052577414 -0.0005457355125538549)
(-0.01357182849846082 0.02159682887438989 -0.00812104126296993)
(-0.03811890431251914 0.00949201525500833 -0.002459605748923441)
(0.000321644081199068 0.0004897977631471489 -0.0006186408195393764)
(0.3505362655038493 -0.2616013186139131 -0.2737243933590399)
(-0.003770644187104542 -0.0001741029226802556 0.0003272294544887416)
(0.0005290579571493472 -0.002514794758639178 0.001128911327383251)
(3.283162699517769e-05 -0.0003406876909647589 -0.0007399595637716434)
(-5.2803423474594e-05 0.0002268712721563972 -0.000186841038618616)
(0.00282578680066798 0.002248057772569736 -0.001790566119503013)
(-0.002656128585514257 0.00326091946506453 -0.0001856616649036528)
(0.002029735538255535 -0.002222845780373947 -0.001808366752092763)
(-0.0006791522243968745 -0.0003755868117023231 0.004367580971275806)
(-0.004756301619363107 -0.004308929221685406 -0.0007339648224889798)
(-0.009614477568210036 0.001340770054635684 -0.0004795639064220096)
(0.0001628254628125496 0.0001772775658540733 -2.821167078357057e-05)
(-0.003379539433829687 0.00531831170584471 6.877305527881804e-05)
(0.3163468186625524 -0.006975158311873092 -0.1022831583411407)
(-0.03750997378411724 -0.0002445881311264938 -0.01035432883827031)
(0.009846104292309268 -0.002353861743369517 0.001551142915941263)
(0.005034378392341211 -0.005346380293125715 -0.003172641964422234)
(0.003442966373703456 0.0004499963223853293 -0.001245953833170036)
(0.01067252267474237 -0.003435432376697889 -0.003920077912380958)
(-0.002620743390301079 0.0007768585915509599 0.0006161877211436908)
(-6.139231781500463e-05 4.17090877772318e-06 -6.490460643093359e-07)
(0.001175213455722205 -0.001121955522447284 -0.002586210928884017)
(-0.001312890486528493 -0.002012880734208656 0.0004860241175131314)
(0.0001855063746365668 0.001269838334122789 -0.000570186786516657)
(0.005660581044292164 -0.00125015598920717 0.003295118260679026)
(-0.001660640024413464 0.0006116871514241345 0.006809580663837821)
(0.008390958625740089 -0.01433780417874815 -0.003604957022962367)
(-0.006148981956658083 0.0007848116466130446 -0.001711012968618061)
(0.06566317742985078 0.04427312616996469 0.06010405387436045)
(0.005816267602287666 0.001460172175706645 -0.002916496104534899)
(-0.0003961028701871474 0.0001714996701125764 -0.0008626177700238767)
(-0.01302109225846072 0.001053590093926475 -3.225626962439967e-05)
(-0.0004753014414564392 -0.0003570992369704792 -0.0001490236780824131)
(-0.0001302435851941584 0.0009289721243768797 -0.001249870852871371)
(0.0004217076404389262 -0.0005689383117093421 -0.002616131418384935)
(0.000528626652339732 -0.0002207331717916806 -0.005588389365336474)
(-3.643332946126035e-06 1.841449665323103e-05 -6.728372131381148e-06)
(0.005892214693240746 0.003735832426665316 -0.004125568540573175)
(-0.03229696240990854 0.02653612067185145 0.02146919630643615)
(0.0001679364006944707 -0.0004053029557768569 0.0001772868580454099)
(0.03138415425383798 0.03066343537558208 0.001935964764603072)
(0.00425136771093285 0.003568935122797223 -0.001456025607918316)
(-4.909487237534807e-06 4.121976046600222e-06 -1.981722103970721e-06)
(-0.04992913359168393 -0.4581961981964533 -21.24539368171552)
(0.0002054603946753866 -0.0002999468427288315 9.269361768192122e-05)
(0.003889994183385466 -0.003933182942132464 -0.001298664461010326)
(-0.05386394558723924 -0.07321126078168032 0.05815200247693129)
(0.0007784199455226498 0.0002053324477749489 -0.002407442443964024)
(0.0004874322849987007 -0.0005668140933992557 8.464621981396945e-05)
(-0.01704038040217801 -0.01877321426442027 0.0967469538237877)
(0.004063128204446715 -0.001082264873769208 -0.0002767824948441991)
(0.1103255342488685 0.0907962129213654 0.0834533260362002)
(-2.509107809061796e-05 -5.980699347895049e-05 5.000341162862741e-05)
(-0.002473306457670171 9.104864806694516e-05 -0.002520994271399575)
(0.005335287731909177 0.01014720268122071 -0.005431647227127216)
(0.0003278581237619921 -0.002001924643932788 0.0004239071045889525)
(0.005140814365369683 -0.003208848352727177 0.001175636289410999)
(0.003625967026704357 -0.00163668253704272 0.004250527327364905)
(-0.0007735934681299446 -0.001344777333329767 0.001526674519998504)
(6.422101823427916e-06 -4.869390434155485e-06 -1.128029787471667e-05)
(0.001089790233176806 -0.001236500362868863 -0.000729992654728321)
(-0.02100375843888624 -0.001304673341194162 0.002318382029131307)
(-0.02170212232672738 -0.00579241775965527 -0.01896888181103625)
(0.004515640572487829 0.03048010279593182 -0.008415743211630881)
(0.001182320427703862 -0.0008584623786917035 -0.002998625867071494)
(-0.002148887816351626 0.001899970296011041 0.002900630400604077)
(0.0174386685533272 -0.02427552242537534 -0.01425038467887183)
(0.003988923101048081 0.001141532483763801 -0.000611438608896299)
(1.674673471802825e-05 -1.136862793388735e-05 -2.95146758323186e-05)
(1.556344550478429e-05 3.078899653559375e-05 -2.075400713590744e-05)
(-0.002202774582713178 -0.00115514319284468 -0.001522986853348891)
(-7.154601003893104e-07 5.248588477795058e-06 -3.377179056283758e-06)
(-0.001244158212684401 0.003569468575395402 0.00259277220671641)
(0.008672671269388681 0.001989421324108292 -0.004584807462443235)
(0.1382277888017243 -0.1320061294468572 0.3107747905740924)
(-0.002568686899922191 -0.001203198057167906 -0.000883980350683538)
(0.0001053065984464322 -1.183842650648777e-05 9.111995879117153e-05)
(-0.0002227772598610543 0.00165534490554421 -0.001562924631855958)
(0.0004413438028964264 -0.003066622454033062 0.0004618496223031711)
(-0.004232374813373334 0.02495147382934223 0.0236404362902195)
(0.001291069506189672 0.006454608153232821 9.021266269575341e-05)
(0.001356573221009527 0.003862957631321899 -0.01125170330863535)
(3.755248097382364e-05 0.002022241752656037 -0.0005233181467486017)
(0.003771999322182913 0.000629838836553721 -0.006463689053956998)
(-0.0737592218997172 0.2038057111646947 -0.5759774398356311)
(-0.000272427927907551 -1.874481765205949e-05 0.0002409631020111113)
(-0.00117807132902465 -0.000142695827845994 0.0007330424030451469)
(0.001074353677180982 -0.04466104528443328 0.001448243707329395)
(0.005568463699042312 -0.0008022407754699613 0.0001919445097587629)
(0.3405093731109913 0.3476005495823211 -0.1618345702615569)
(0.002667207310954994 -0.008138854115046694 0.005552768958232434)
(-0.007773003150803453 0.00350528217436757 0.006418442173599905)
(-0.0006022600855316514 -0.0008042012768705116 0.0002756295639964648)
(0.001123337538260805 -0.0001852029032348398 -0.001651550476611512)
(0.0001486751386687237 0.0046349072962182 0.006038339173635459)
(-0.002171052224445706 0.0005276626803127874 0.00159982120794006)
(0.003422811041977836 -0.0002150203964173156 -0.0004137924052579595)
(2.253723857535428e-05 0.0001534088431669898 -1.757672844541654)
(0.0004703853138607899 0.001696433443072537 0.0005358330894630627)
(-0.001457135696987706 0.000419690587010282 0.002096489971998095)
(3.235722613845857e-05 2.031637235070753e-05 -2.829084228676365e-05)
(-1.477886077990757e-05 3.062261147925538e-06 -1.351841914609854e-06)
(-0.004376445584659229 0.01401402167514152 0.01822674834937784)
(0.162898621344101 -0.007518674106069594 0.220281208159262)
(-3.057342419934307e-05 0.0006831608256197394 0.0005736855982282164)
(0.00332016888865023 -0.001848301681073119 -0.002521095907024607)
(-0.002667756852722789 -0.0001661539397490963 0.004656994721748596)
(0.952954273121192 0.08204033553301684 -1.03437994673591)
(-0.001096410117034039 0.004023865900918809 0.002724351020364532)
(-4.307502824057113e-07 -1.93017150295158e-06 2.485400058837518e-06)
(-0.003112166599436006 -0.001224838661107532 -0.001360176685753797)
(-0.0004734798317737537 -0.0007060834704764569 -0.0006696930711880601)
(0.000339559626101231 0.001665154440650491 -0.002507367831988516)
(-0.001042588789447212 0.002228991311902742 -0.002178561226170443)
(-0.001633113462338049 0.0006768470838509413 -0.001388001731885225)
(-0.0004888230609204777 -0.001448981200114304 -0.002364705457942731)
(-0.2178173733460018 -0.4206424593902071 -0.8265631982088913)
(-0.0007224460574720749 -0.0004051758459053057 -0.004087238461311103)
(-0.009514480473986679 0.001773492496243808 0.004074127169655174)
(0.0008475758397467443 0.001932940771349349 -0.003560949361685159)
(1.439712085540134e-05 5.12080566865703e-05 -3.806517930129845e-05)
(-2.358547858704731 3.590176961382961 -80.04174193182997)
(-0.01062937126598464 -0.006307642048715607 -0.03160905011906665)
(-2.694472602956511e-05 -2.395576305899595e-05 5.609488586780086e-05)
(1.023143086674536e-05 -4.801346557503893e-07 2.274380485654833e-05)
(0.003674229196166423 0.001579452106152612 -0.002247669720892327)
(0.0001745864758534798 -3.837613128446437e-05 -6.091544077213267e-05)
(-0.002351498042596613 0.0005034563040968047 -0.0004488064054746244)
(0.0001317436083167315 -0.0001243918850582036 -0.002116621325069519)
(2.626657818143592e-05 0.0001260007565856577 -0.0001319258888200952)
(-1.062334749654317e-05 0.002293882607231078 -0.001136800252545648)
(-8.583563951071892e-05 4.337649839296598e-05 6.377920400895681e-06)
(9.263659535913075e-06 9.469054023565166e-06 8.264156468858446e-06)
(0.009889373460432655 0.0003632179625533155 0.00108442564347034)
(-0.0009110787824286454 0.0005525955104722917 -0.0003587190428905748)
(0.0004547117924884451 -0.0003260064032683012 -0.0005503054104284018)
(-1.366852852209924e-07 -6.971234114719863e-06 -8.894380022142935e-06)
(-3.17044886018421e-07 -2.347474270131452e-06 3.53532944774605e-08)
(-0.002586729631232217 0.003606514227455098 -0.002742122821752987)
(-0.002614054355502184 -0.003461923218266453 -0.0006340890489904302)
(-0.04150319840294927 -0.01540828436880066 0.03565735911185576)
(-4.405050089524726e-06 -7.744052218930112e-06 1.012955104482014e-05)
(-0.0003998435479387732 -0.0007683258948123644 -0.001054651112950751)
(-1.090318519415024e-05 -0.0005040331048143208 -0.0003565462828147329)
(-7.682513099533807e-06 -0.0003332600227989906 -0.0002041561548826718)
(-0.0001838076436183201 -0.0001168220128930365 0.003191096246495025)
(0.004200576342077184 4.765091206842967e-05 -0.001345216056302917)
(-0.0003932309038965362 -0.004369568918192269 -0.002866582716973587)
(0.0003086105464567137 0.0004202287380164677 0.0005492937850665595)
(-3.296793872659021e-05 -3.399689088611414e-05 3.314922653002975e-05)
(0.0001941745523781925 -0.0002194995236663318 0.0005804446452682577)
(-0.005521177220670434 -0.001254740145580926 0.0004121625304080666)
(0.003835920780736397 0.005048581385795141 -0.01062453556093182)
(9.325383725181043e-05 -1.21625627420443e-05 -0.0001239680351728794)
(0.001837943152372058 0.0007352859266762687 -9.202506829591333e-05)
(-0.13489767164795 -0.07249528979145674 0.07816105653183353)
(0.03828958635946477 -0.06800650848001491 -31.75854449554405)
(-0.05080424204156877 0.018647870075448 -0.003900468259931083)
(-0.0009780267581026901 0.002267765106247553 0.001586197157227047)
(-0.004598774853253755 0.00924534952940748 0.005311334268797507)
(9.492992612425572e-07 -4.470158873588752e-08 -1.553125496236505e-06)
(-0.008703691853520601 0.001440021799087571 0.004820187283582743)
(-0.07985280025293097 0.001469718716741078 0.0004615294971217557)
(0.0001818205194930248 -0.0004514155596189051 -0.0003463670492426748)
(-0.01968895300019474 -0.02173058265365746 0.03647186956436714)
(-0.0006699398267886557 -4.657129837873808e-05 -0.000313873109372308)
(0.05641351906762 -0.05248041406972155 0.02017689567045574)
(-0.003921980159222587 0.0004655746564607949 0.005355988094949287)
(0.003204911512379489 -0.0003484149297102762 0.008249608166711046)
(0.0007561783674867469 -0.004459244247477648 -0.002261872509221926)
(0.0009707748498572612 0.0004586937184579276 0.0007450483450494391)
(0.01202518023780081 0.005727376032182607 -0.005194898523692886)
(-0.001510241494366441 0.000261792123558909 6.907811949016047e-05)
(0.0001392544285709183 1.011201103827168e-05 -7.739786792453323e-05)
(0.004171890080853398 0.0001533478708180156 -9.540108597940432e-05)
(-1.279458081249599 -0.2938304570061749 -46.83884372482513)
(-0.1347915303428105 0.04416748898350494 -1.309679046297721)
(0.0005921212012658216 4.754216875709718e-05 -3.24257089341958e-05)
(-0.0007193385110004352 -0.0004126961599706725 -0.0003198656877480915)
(0.1304446977854326 0.2951433923338249 -34.71158600220546)
(0.0009948276764207677 -0.0009526622293506374 0.0008489349970575884)
(0.06136151707825818 0.01556751715791695 0.04969472811501958)
(-9.128052214029181e-05 -6.321426225569854e-05 3.830003127091447e-07)
(9.912104034692412e-06 -8.648940046358132e-06 -3.68755086434738e-05)
(-0.002944369354342793 0.0007042454170280918 -0.0009312370896153769)
(0.008167937676998735 0.0004953254728019244 0.0005939324240661304)
(3.377437072068319e-05 -0.00178155286180277 -0.0003328979191469606)
(-0.0002180068372702398 1.994355258008639e-05 0.0002445243393454583)
(-0.0004340167555917119 0.0003780424113336018 3.606314123266968e-05)
(-0.005918741973733608 -0.02035834068126405 -0.03164059149421908)
(-1.319708738272259e-05 -0.0005810034092495007 -5.960811216181277e-05)
(5.754908741124236e-05 -0.0001331122235925073 -1.849708211431318e-06)
(0.04327320401472578 -0.07078820831934252 0.04942053636607114)
(-0.002120506512530266 -0.0001681111613181492 0.001351498693803914)
(-0.0207919838421607 -0.0007845665359788058 0.009211904717006588)
(0.0005050479457849136 -0.0005649082179980283 -0.0007868748156759299)
(1.466997386470579e-05 7.783177717098373e-06 1.044067821648766e-05)
(0.0008169871051904205 -0.001583954641569972 0.004467368406430042)
(7.305051275061728e-06 1.467147596164633e-05 1.968842389208038e-05)
(-0.00868242075361075 -0.009582460199274636 0.002815181606173998)
(0.0006328303151859174 -0.0001346675241051271 -0.0001789063303813091)
(0.0148358414325655 0.001979410229840502 -0.001975905414024703)
(1.016169114188815e-06 2.276429423712388e-05 -1.837605354445628e-05)
(-0.003475258771477874 -0.0006492412134989187 -0.005453435044604826)
(-0.006040610686123896 2.119053874602731e-05 0.004182694658955785)
(0.0007121261754347904 -0.0001740998471637049 0.000287637985636924)
(-0.002049428066807814 -0.001247678376424274 0.002597390336049042)
(0.00301135418082315 0.002100042608512826 0.001401289183274937)
(-0.0006451987498832602 0.001216075332894723 -0.0005842999564218351)
(1.870246679583398e-06 1.779363722101166e-06 1.741447271997841e-06)
(0.6180004935657692 -1.016802199602909 -1.081324332923517)
(0.003479444593568815 -0.001521218211428367 -0.0003904042879297734)
(-0.001967683764151646 0.0002468335532903631 -0.001856415193121437)
(-0.0008311770119264199 -0.002021227625366284 0.002161754381966644)
(2.909141630013973e-05 -0.0002999877086235681 -0.0005948601590209865)
(-0.009531736375651049 0.02072750687030376 0.01894842185793071)
(0.002175532727157187 0.002151321068818242 0.005383089802395854)
(0.0009697158035100511 0.000588648080508836 -0.000271266963282532)
(-0.0005036751423845628 0.0007576522747247122 -0.001373793852700684)
(-0.0007307955497788954 -0.001277741124718202 -0.0004136384077963521)
(-0.0008355414086707723 0.0002746651404234513 -0.001114894439586546)
(0.002444894926803083 0.003425069986282668 -0.004062482514594874)
(-0.0001098083133425149 -0.001118227684492899 0.001153185653823484)
(-0.0004249727405778048 0.001780426281532836 0.003829985278322103)
(4.150367473753407e-05 -5.651591550224073e-05 -5.771767315601508e-05)
(3.887459978286353e-06 7.059558424124793e-06 -4.605747181542024e-05)
(-2.415939452895248e-05 -6.122338921445799e-06 0.0001031317774872345)
(-9.581799478271084e-05 -0.005690047317663118 -0.002551339622413895)
(-0.0001050178793613064 -1.877883738842177e-05 3.868152022237527e-06)
(-0.005108965529648123 0.007332719979608277 -0.0006131672135003974)
(0.0002666710533667837 0.003537676056072638 -0.001393184824016642)
(0.002196951934999503 0.003171850755839249 0.005597435212665479)
(0.002492901373384452 -0.0001338709008915994 -0.0003756334239169747)
(0.002846760452394939 -0.001155442492018841 -0.0008257069942672918)
(-0.003764546188471587 0.007272248365153479 0.00374823901742909)
(0.0001112900316601513 0.001747161033461122 0.001105312597798437)
(-0.07304291917584987 0.6633365953777656 -0.2938138793647058)
(-0.08494029936080345 0.1284868393885446 -0.05232089606434576)
(0.0038626591472994 -0.001192972420445565 -0.0004851821922311836)
(0.0002035818548762488 -0.0001572128300505966 -2.84143605279775e-06)
(-0.02067941355847373 0.05295226263970575 -16.90652215064571)
(-0.00287402974405275 -0.001210911922785527 -0.002789764669931862)
(0.6141868301439659 -0.159378155302618 0.3712844671324818)
(-0.0007707559800886627 4.970124184507812e-05 0.002009216903152794)
(2.361182327067551e-05 -4.664003323234789e-05 3.570091372998455e-05)
(-4.299919585373427e-06 -2.512503512861128e-06 3.723234942102547e-06)
(0.005836727806966946 -0.00535917635856072 0.01747397432782471)
(0.001437647153972398 0.0005268196490772716 -0.003063057769477474)
(0.003094229405941841 0.0009590934338906017 -0.01142300371690753)
(-0.1534220378999335 -0.07420861762280809 0.1220589058651306)
(0.0001803613713301244 0.003018653650955196 -0.002226041944946151)
(-0.05687390685530585 0.002201521085639622 -0.004813336911963163)
(-4.54327883954721 2.808449732371205 -40.66303148933268)
(0.001396550522378099 0.001396975088917553 -0.0004332374993772938)
(-0.1861610330877959 -0.07552061585953976 0.1057307691250253)
(0.05712981995686444 0.07250203577719264 0.07027159150536444)
(0.0001315001517485951 -0.001568648903536801 -0.004433976041320159)