/*--------------------------------*- C++ -*----------------------------------*\
| =========                 |                                                 |
| \\      /  F ield         | OpenFOAM: The Open Source CFD Toolbox           |
|  \\    /   O peration     | Version:  v1906                                 |
|   \\  /    A nd           | Web:      www.OpenFOAM.com                      |
|    \\/     M anipulation  |                                                 |
\*---------------------------------------------------------------------------*/
FoamFile
{
    version     2.0;
    format      ascii;
    class       volScalarField;
    location    "1.6";
    object      p;
}
// * * * * * * * * * * * * * * * * * * * * * * * * * * * * * * * * * * * * * //

dimensions      [0 2 -2 0 0 0 0];


internalField   nonuniform List<scalar> 
19631
(
-0.2655937872616013
3.632099359409326
0.06522157796695699
-1.019728790969554
-0.1980735017637394
-0.6652146402938179
0.02053693847331268
-1.035865366465578
0.347283114515835
-0.307099130607437
0.4122844069011155
-0.2948529523573097
0.456324469220911
-0.3324912019924581
-0.01554923241369733
-0.4630988468969275
-0.3259413910914465
-1.454603928278154
-1.068845729996644
-0.9951398259403375
-0.1195449824895464
-0.3626133941354112
1.807140743456381
-0.3894741367278546
-0.3709636539761846
-0.4828200202675618
-0.381385178626289
-0.9136441807035905
-0.2185289643865236
0.03306053260429542
-0.3841207686632597
-0.392263308940711
-0.4060489039911094
-0.1876598819650815
1.460761075828906
3.867347820256891
-0.07725904284638603
-0.1867068151136534
-0.7960470029374503
-1.010706254965765
2.377543999224955
-0.2071002146468663
-0.01159247044500664
0.01619779658408554
-0.6996020152836646
-0.1858176581673243
0.01560399570205854
-0.03621568095594397
-0.2738011111967472
-0.3806805418592506
-0.4175835291373654
-0.5374679841183161
-0.3975036822263115
-0.3746281417173549
-0.463667156199126
-0.6265376374043636
-0.4602718443696843
-0.3776048853760277
-1.025531798852962
-0.1791113970064223
-0.3993815817957922
-0.6906280742578141
-0.8156837726236154
-0.2131149916070564
-0.2734821346286082
-0.7479880044276671
-0.4380744917537833
-0.3545247246056435
0.6594427092450637
-0.3129398736586615
-0.239808998917847
2.098603336362573
0.1038925159574041
-0.4264850574425156
-0.5042772124914352
-0.2172989368488495
-0.1362933822272761
-0.4388921916723406
0.8889588684179547
-2.377289928470884
-0.1066654186040726
-0.3015931559937771
0.2870775817162104
-0.9642023365311325
-0.7087784640329849
-0.5314234172796287
-0.3876006851178153
-0.3661351145495279
-0.457631373603317
-0.2253461321719066
-0.4638968893614495
-0.4979927976808903
-0.3870292505298288
-0.4365863627696367
-0.6238354742759743
-0.8272747346010967
-0.1150762390004709
-0.2828117963040908
-0.293557581534145
-0.4738984446160516
-0.3702043452448289
-0.8771798010104976
-0.2329534271111794
-0.1826776053089504
-0.7081982454503116
-1.31937344661307
-0.005590412587418655
-0.4457573058772679
-0.4084062964444508
-0.3512687796049739
0.0189512991411759
-0.5141086340499317
-0.6226276582626615
0.5106342412802797
-0.3477306850104847
-0.8487291239741657
-0.4098861138133452
-0.3705821437361025
-1.073733306197421
-0.3625346617581514
-0.386327947546923
-0.4416702696334207
-0.4555435412751779
-0.7889241456887607
-0.2793738827694274
-0.2005959083500248
0.08476249554956297
-0.3576379883461764
-0.2870165743735849
0.3947733322673694
-0.3658569998262274
-0.1426367878464457
-0.5051369014804481
-0.8180192878457919
-0.1535710318223273
-1.293209614060467
-0.1329502931913549
-0.9243041235960263
-0.3443911502549832
-0.4950525885190926
-0.8171092554148601
-1.685153791797556
-0.2091796948934449
0.04211514610421473
-0.5610800455973552
-1.022848054615422
-0.381007261297986
-0.2098530140344545
0.03629930659136052
-0.3737395661732899
-0.3599827116601975
-0.3697262093581124
-0.3727153517980118
-0.3435863823771933
-0.3836622623462694
-0.2804328432633418
0.001495102091568007
-0.149936875706501
-0.5284094335089528
0.01501303136400635
-0.3995849325664338
-0.1096092023811406
-0.4038873901243853
-0.4136865352101473
-0.03639009175582558
-0.4621853779713164
-0.4677437590293863
-0.3754206335344987
-0.948778832579683
-0.226346779224822
-0.4799180810897402
-0.3475442889952713
-0.3994786228612899
-0.4030880618221281
-0.3737324460049414
-0.4745488059632886
-0.02781019130277926
-0.3424843815550691
-0.3592508157021736
-0.1768611786299631
-0.3144200396553183
-0.183779456139213
-0.1370228865428013
0.6360877645426951
-0.3868074432450686
-0.1451463875387123
-0.2465810105224098
-0.3785391210576296
-0.3607424722550442
-0.3628216981279947
-0.3991680323207332
0.7699639110901673
-0.1441447597803352
0.03160819435612866
-0.4054126149642405
0.7091291663008894
-0.4074449924058091
-0.1525445103872453
0.3395398252338546
0.2297666472696751
-0.342486273670952
-0.3776712231543013
-0.03926335322805632
-0.4317805412387244
-0.1074482516856853
-0.3548873553035602
-0.3702396576956511
-0.3772940101187314
-0.07278428121665839
-0.337474363939436
0.2045151399817347
-0.3318506783807378
-0.3257645931374127
-0.2662503183478798
-0.3075237413761768
-1.03855320669356
-0.3099983036729611
-0.2100047760058224
-0.2423726572374241
-0.9206291751612473
-0.7564027006334751
0.1917871136049588
0.3311904136300002
0.02141123826482504
-0.3463003795631263
0.078252633181754
-0.1168748413824894
-0.1745783957757967
-0.9210707053117089
-0.6474935596158877
0.2115401356278251
-1.357919494345883
-1.293226911397271
-0.7538662490107298
-0.6285597741082429
-0.5001893913122322
1.026458258796171
-0.6863420687365321
0.8700921401653673
-0.77106780794454
0.382438781469914
-0.7452007113738783
-0.1016694249021094
-0.6899468735311163
0.1989358403854096
1.37934384909733
0.1283846907961641
-0.206403491527988
-0.7024980716271997
-0.2615831647910509
-0.6188513912655685
-1.077790216838512
0.0783978196763068
-0.5663168043179165
-0.0194760040301438
0.5493344240009244
-0.5930884330098667
-0.5635252311514666
-0.9595572360211956
0.379331057659803
0.08841264973874471
-0.7592451257680231
-0.6312622507807902
-0.1176802192232601
-0.03270778293184839
-0.01074605336867513
0.07878805889871804
-1.401931854221035
-0.6496783628075165
-0.6293295567366672
-0.6097440781587928
-0.05714503247247284
-0.4494337953179685
0.07404679445415054
-1.687280888161054
-0.3724173857913121
-0.0166392329023047
0.09309072627352925
-0.690541355604927
0.003481057950854939
-0.9720953650099374
-0.3521667633587359
0.04719918046011588
0.5383177315230848
-0.9475295938034533
-0.9315311227151001
-1.952885605897941
-0.7869431972877481
-0.3164190782193509
-1.036210870676591
-0.4962628467609246
0.2195254262855019
-0.01408561341795685
0.02319604896701269
-0.7617428101843167
-0.004955450855834851
-0.5654772530254601
-0.4428574248574507
0.1800360025484883
0.9149105582049423
-0.2505858546668269
-1.075688129420062
-0.4702911331627964
1.629503144005519
0.4165648354902197
-0.2599950207265944
-0.4470612522743618
-0.3703082301078257
-0.2165434634031004
0.3699063816490895
-0.05097115327553553
-0.09759409062654269
-0.1860311246425012
0.07232003512186512
-0.07318688472628275
-1.029996902905469
-0.8486797629418402
-0.7854830112491284
-0.4236213931051889
-0.1430013257812104
-0.5380218402375094
-0.7987580619523822
-0.2274612960000017
-0.529478944524623
0.05371124477387906
-0.1104005288327072
0.06060218846209463
0.2359984840331114
-0.1480969156606248
-0.009776073459526739
-0.581600280585563
-0.7966782507832878
-0.5393305460424136
-0.3549051918236839
0.3108036180918683
-0.9687773060179919
-0.5745492631531816
-0.5109669441967954
0.1008696228956081
0.06063173337417416
1.165396027263675
-0.5178491143877124
0.00468388044785462
-1.164499239265889
-0.7452375945210857
-0.1367938119766331
-0.2587345965910813
-0.3648006887043957
-0.1120876871529616
-0.0930551605661121
-0.3424372723282478
0.00633495595743594
-1.00824729518777
-0.1427773497539721
-0.2422607084184912
-0.2788686789096165
-0.2140346837309156
-0.1473013709077469
-1.032405152029496
-0.2724758283229576
-0.9303748843644013
-0.4197193908181823
-1.201275600049017
-1.11297260101432
-0.3180826738320789
-0.8479146776251145
-0.09023367667135036
-0.4513694983102388
-0.3035445305536071
0.1940125326509518
-0.3429235275295288
-0.2191754480294065
-0.02526676529576923
0.2924202839459916
-0.8549832073033776
-3.899343548186627
-0.2328373844666742
-0.1555471880474235
0.5977147994481479
-0.06177380610925615
-0.4207347768733815
-0.416669879150432
-0.6501326568154866
-0.2878717182602963
-0.4406952808562118
-0.6124351877054199
-0.7228486370068627
0.3137291895594182
-0.5437418007935021
-0.0750233624531369
0.05508887204226576
-0.02047753120079789
-0.1483996125292901
0.1999508882958546
0.03970164122501262
-0.2060650114695801
-0.2179183913550055
-0.7432466041353931
0.07230494966757912
-0.8784711446878453
1.277968236289191
-0.0641104739796092
1.013185949098541
-0.3785598994139481
-0.7609969325185331
-0.2348851470694405
-0.3015566443225555
-0.2501559436424506
-0.0253720532094642
-0.1981205255332963
0.06729282781195282
0.4547440930636596
-0.1348067329136651
0.2249195101952015
0.003069496592532949
-0.2393345782170845
-0.5525549101828321
-1.118080348427335
0.1531205282798137
-0.3619559969320632
7.233192750234033
-0.2444387587655093
0.01988526949176861
-0.5041281051440305
-0.1169387288745204
-0.4122458762372693
-0.8949238931054873
0.01839416197645708
-0.5055793957081696
-0.04874220197605347
0.02002545438127836
-0.168838274423967
-0.722755420445641
-0.07947315825780425
-0.9555124505527087
-0.1319071395344293
-0.820518132809777
0.1358924188773825
0.01188851469658276
-0.4603833868307858
0.2950689983509049
-0.5470664011436468
-0.4385892502808332
-0.6390094949881813
-0.3398377910900313
0.4138062281568176
-0.3190640924811205
-0.7707763851228506
-0.9591377330648407
-0.9057994423174179
-0.008718404218407846
-0.4250269582966336
0.4358319754266876
-0.1773084374691759
-0.05541620713983791
-0.04846274187915944
0.8497240056601949
-0.4515484183371621
3.179529859824415
-0.1067442017362144
-0.2826937739509229
-0.9367238133295513
-0.2884091512936593
-0.1267282613185476
-0.6329380468939464
-0.5828906368083451
-0.3018422630901905
-0.4346961370248264
1.143191795401469
0.5357816514693067
-0.1093707946174518
-0.4750575803026031
-0.01203142294598954
6.421186800493893
-0.488254797932305
-0.4022517585587423
-0.05697555149317812
-0.09492524944653581
-0.2966355626287675
-0.9810151952319818
0.05354516515871899
0.5102591465381228
-0.239569071890748
-0.1117161803268119
0.4190143093438573
-0.2244879613189945
0.008427252691165538
-0.6495082160068937
-0.2618104981431465
-0.7654959763336062
0.05084409347441199
-0.06277327229376141
0.1221136954782209
0.3879084582702354
-0.7757947659377809
-1.265220036907286
-0.184984678330062
-0.3140628373754656
0.1267606151357596
0.1668075915187113
-0.1476005561750749
-0.4457129410230651
0.1558942048105703
0.06523441285784598
0.6286470178398899
-0.3969736367194487
-0.0244680392803541
-3.609627417865953
-0.1811529590147323
-0.448448326527629
-0.3206129496917067
-0.04450541786565815
-0.09351555746372357
-0.1092645137305221
-0.2183856362698418
-0.6500965992613219
-0.60269850573371
-0.2987464483980939
-0.7158386695823418
-1.47274723714218
-0.4562074345235063
-0.104167373923515
-0.7009624608052085
-0.1007333482166622
-0.8424865469665878
-0.95076260311797
-0.3648269609376051
-0.9865179363916513
0.1105444880425404
0.3776273646737101
0.2369806492913224
1.82381604142589
0.9454723126328239
-0.4921485922797067
-1.370327765751856
-0.6445667483290296
-1.172752965009798
0.07519651537319318
-0.5957187786438245
-1.136834824248317
-0.07163838657660486
0.0559104909900543
-0.5181312780126323
-0.1167967059298402
0.03580068165372041
-0.3431524585769045
-0.07231643024398984
-0.330723669986725
-0.7085647886112367
0.04679408857618556
-2.571056848493734
-0.2526555336027722
-0.2483004547933792
-0.5496576959303342
-0.2151939522460954
-0.7197173748621898
-0.4179006576323808
-4.680440642134633
-0.2291260419240324
-0.6222677255006602
-0.5548895098145913
-0.7116175187658067
-0.5598037638115719
-0.4733393594849333
-0.330937034707797
-0.6707681223019917
-1.092735154241935
0.008717275331496174
-0.8898193342805059
-0.4128025915752959
0.007030447761543221
-0.3239878696525925
-0.07422499656881813
-0.3006045661636199
-0.5914309606999565
-0.1951373352106043
-0.2257635993916769
-0.9093524161025297
0.007289111564451764
1.617634133388047
0.6963511102910402
-0.8461289792634414
-0.1976086241142298
1.022112368051961
-0.3366975511957351
-0.5649928835078002
1.115882776214259
-0.8962193245767258
-0.0629123784461344
-0.4676804855771001
-0.04487979084141841
-1.078239091634285
-0.5401047023926032
-0.3737404649504115
-0.3102156074794777
-0.5382113407035798
-1.238578321965295
-0.1521690397106078
-0.03882306532541892
-0.1845177464616771
-0.4204058627105492
-0.2131110231016632
-0.283013293823517
-0.2117618117716324
0.826669480538504
-0.4896681659829022
-0.3387915434690922
-0.7156743380966253
-0.8708445307037329
-0.3966741886934715
-1.601343710990326
-0.4281995406291755
0.7867096643218103
0.0982572436079255
-0.3076808003104796
-0.7665942378734081
-2.759332406357083
-0.2325753325762678
-0.8232204711447805
0.5546457202521555
-0.2148033739900411
-0.240018702176001
-0.2637834807698615
1.164697478283195
-0.03215769247745861
-0.2109757263682576
0.08084945836284406
-0.5866559380233793
-0.9576465952913191
-0.09167894816967098
-0.04218376708615068
0.03526655755024626
0.79708230380816
2.210082733958455
-0.4080623732913924
-1.514986252048068
-0.4302679543615369
-0.5475112188937193
0.0698494664005242
0.317857065485047
0.1513865980831193
-0.1097820338517547
0.1521269123048378
-0.2422865472290612
-2.947207340608202
-0.7603471158697833
0.3821922271648081
0.391391528439783
0.2911882760373652
0.387177557302514
-0.9878177962374003
-0.3694068471324178
-0.5597401839903019
0.5774383944888002
-0.8033617885360673
-0.01041320826671089
-0.4329272087934142
-0.6780014683969676
-1.233490768145008
-0.6443040961767452
-0.9427823453040607
-0.2826818268605349
-0.2579120303475171
-2.61881677874037
-1.003713243700707
-0.3541863383386633
-0.3801172015490389
-0.1228326639982883
-0.3900951418813183
-1.316817968489025
-0.4827784895329735
-0.393863171024079
-1.058000093393875
-0.4449788406928771
0.5618502722730622
-0.5362726269866512
-0.7400580814316002
-0.427209649348107
-0.42622296664944
-0.5153490197699382
-0.1177846721814554
-0.4923792126376952
-0.9289483652304142
-1.028569952073102
0.3597872698236661
-0.9344090489378239
0.1192747906737103
0.0119300370974295
0.03674035968371436
0.04690362120872575
-0.07470692394651705
-0.7175926162130631
-0.9443467171841537
-0.4527398347009975
0.008373176825945737
-0.02125862310881738
-0.9622730344265884
-0.8893197711728824
-0.4793755015298541
-0.3861164259160406
-0.3512119157959559
-0.7738266392703829
0.1220716333510882
-0.181132835832853
-1.354404647641539
-0.3900484580370977
0.07691953957159055
-0.4948875619656435
-0.7324619361463519
-0.1785755373408489
-0.7206891359580212
-0.6167549552770472
-0.6701299300644389
-0.3172034796305173
-0.9124577344277707
-0.6927893975653571
-0.1422030552800394
-1.450321453132411
-0.4644159882642576
-0.6775913929636332
-0.9905481822775296
0.04828061005483598
-0.3998156993735568
-0.1098649206658842
-0.4873756604725452
-0.8063210398941262
-0.4342524215312594
-1.425930947046078
-0.6327269617749998
-0.8667644285056679
-1.294825602855654
-0.7949134888815164
-0.2517793161170817
-0.8355675087625983
-0.2959177991545697
-0.4477149597192432
-0.190636592606776
0.04082528306672514
-0.1650470278957863
-0.201914938992263
-0.9215953382200986
-0.3993369709711209
-0.2240197520380111
-0.157254618376053
-0.7824843069208309
-0.6569381345343093
-0.8875059115431913
-0.9681728417105381
-0.8087458620992329
-0.5144153271405674
0.4938296891797395
-0.6369799596380661
-1.092002305677612
-0.9668444000086795
-0.3083956098280395
-0.4076367011317951
-0.7496429551001673
-0.6348475606224467
-0.4622068078928329
0.390561136975075
-0.2098640911300393
0.01613869196370729
-0.7422463981174695
-0.8509460917075409
0.1140695143916937
-0.9304258468725698
-0.1733265952576088
-0.4212664650741538
-0.3802969688343955
-0.9782878557309533
-0.5552135939089023
-0.2335920411467831
-0.33292325697507
-0.8188743244507253
-0.790166489296748
-0.5772992773213159
-0.1975641882389442
-0.5513873859738472
-0.6788624778504501
-0.5493736980704182
-1.01446885189751
-0.5729327518190406
-0.7761905629152988
-0.4210925076494378
-0.1952578465329437
-0.7373944313487948
-0.603365195701152
-0.1899086766218392
-0.6105605745532002
-0.2587782008349886
-0.5744051778651923
-0.5275335386778492
-0.9803472796098341
-0.6070919841176258
-0.3375684470537106
-0.8131617501482136
-0.218667299068116
-1.006503660219726
-0.7539809125967284
-0.8209800468619844
-0.3212000621679904
-0.5386279189913619
-0.575369218276769
-0.7130432957793669
-0.8322006463829645
1.319212447289968
-0.1146258189034397
-0.08544380764855491
-0.484790936811085
-0.08020580044540558
-0.1367919589919503
-0.1769631128236181
-0.8064889875040527
0.4681912117675397
-0.3992193413500762
-0.3082195440694302
-0.3533051381200822
-1.164358869393877
-0.5849202076627512
-1.366379985548663
0.04814261421408426
-0.8985741913850602
0.3092045180862783
-0.6453534365384568
-0.8526024669150348
-0.5336819325664093
-0.603086189320736
-0.02998041153884091
-0.5295644328569001
-0.4598069732307689
-0.2467078926080022
-0.6377934464469394
-0.2139527360860647
-0.08414845862239825
-0.1258142160434345
-0.05534503148261936
-0.5127896399879849
0.6568773245971362
-1.009736714933756
-0.1675393552895456
0.7391877918320418
-0.7704153413769573
-0.8620252644888818
-0.7484944551401898
-1.006581520284149
0.3521861800764581
-0.6945398155643341
0.1333960831667408
-0.6457933195190161
-0.3523709249084152
-0.4207322640303409
-0.3871266409824133
-0.1643856609971181
-0.597954773033042
-0.9398686584420519
-0.1649889235176701
-0.8473704078592885
0.4339084630689025
-0.407065145511969
-0.5156008102209536
-0.3352598496082957
-0.3228068456777277
-0.3128450307544183
-1.077054792769662
-0.06656431150943255
0.2222155747980504
0.02753718945241624
-0.7286310055381944
0.07552799536101927
-0.1918942987786019
-0.710966831336045
-0.978822992033489
-0.03490746147425162
-0.4541859049456185
-0.4394704982666833
-0.6638869325711028
-0.5054829663980903
0.04777331822276963
-1.245115597406363
0.732395105700022
-0.1477477072410217
0.3911553799852496
-0.7251476966699537
-0.8770279101901785
-1.14790309756694
0.3193697932249554
-0.2708474796646901
-0.8508439165015945
-0.8505648454832641
0.5840379823880714
-1.962703768575202
-0.313966678554932
-0.1403854794984203
-0.3082395387086962
-0.5721470296659796
-0.5287624015966538
-0.3285962565282967
-0.8096474217669249
-0.8395255894588718
0.5419738758735031
-0.5568099521685852
-0.3076795560821938
-0.1733539274099817
-0.4309079470970923
0.02998897520771967
-0.5467804706858893
-0.2488224485512974
-1.039800312299061
0.216657895179508
-0.5479487204414017
0.2362065709180503
-0.4254201219454416
-0.8111411590601609
-0.07864033954142843
-0.5470387133555543
-0.3993436259924352
-0.9162041636967059
-0.2465085763924576
-0.09931070659982941
0.9578659814898804
-0.6331233719039947
-0.9932911597777521
-1.065774460886113
0.003181115380375191
1.062409779596944
-0.730491953237414
-0.966986652883206
0.1451646965277912
-0.5049440297852894
-0.3517387017141148
0.02080019178927245
-0.6487559295475154
-0.01298490760393174
0.6722419996648723
0.4274013416613122
0.1572037336530606
-0.7488517649938893
0.03895972878265114
-0.2302869613015704
-0.2118869405401708
-0.5275356712158386
0.002069792366413087
-0.2687434931329101
-0.8202712767885666
-0.1139889675223009
-0.2402606829634403
0.6633334926064041
-0.8979707797991799
-0.2313955253383963
-0.6536640143546257
12.77713189155141
-0.2560781001606974
-0.2866591286524187
0.5647959067599588
0.05988934780022696
0.6110921926545348
0.8632009131665578
0.7410403742896405
-0.5481536015017531
-0.3835392169444678
-0.245232689707715
-1.423857825053668
-0.448426586392292
-0.3788620011291131
0.4551569496493774
-0.4902328985238679
-1.097245220770277
0.520757998807367
-0.270814381627871
0.1312947913646679
0.1807523398195115
0.112267814288161
-2.194469923606685
-0.5755843115166226
-0.5833698210581685
-0.6616888775032492
0.2575913133870308
0.03963241647835334
-0.3979051198140972
-0.3393544144801988
-2.7048481313208
0.1948207434245079
-0.2461937673266337
-0.4228487918868996
-1.399123677464619
-1.591588890273297
-1.201061618103535
-0.4970340458013158
-0.2763771311589054
0.2813341060272382
-1.139976748668391
-3.014513467630424
-0.5057457658262913
-1.121527976528913
-0.2047040060803243
-0.4996245505517937
-0.3393043355368043
-0.04577672257553714
-0.662790595412702
-0.3469302617897621
0.0332931972138326
0.1064238557376357
-0.7455256100828601
-1.412392189205665
-0.3923656155839128
-0.2677430904373855
-0.09556243654371431
-0.6844407635785519
-0.4251556408613696
-0.1117755354783859
0.1900031782007808
-0.09601344848416792
-0.3289396695037536
0.1700218635761709
0.04523232312165862
-1.944166576721141
-1.074754164732604
0.4750473946957476
-1.350824830700433
-1.337570715073297
-0.1685009965734929
-0.3304012287333772
-0.2978820303060281
0.1813432586004701
-0.3603204044597468
-0.7040829815117604
-0.9061477315090548
-1.046378100413082
-0.5513483999880302
1.160187143212046
-0.3355056050422358
-0.6012474735132299
1.444651061476383
-0.7020412306900856
-0.1332154002225551
1.053282124315694
-0.6213081737776138
-0.2397559497001444
-0.2981548167762734
1.029949112305629
-0.1021200427830301
0.08311964311940741
-0.2478155831239865
-0.8559505879069456
-0.3629156808073551
-0.7620969790248431
-0.2347150896862501
-0.3336100588677543
-1.082201096688362
-0.3197442539486267
-0.9050454970060015
-0.1510243658656709
0.08335295792830705
0.2429583852914357
0.3461528428894822
-0.619036560358454
-0.6478509319939444
0.2874755224041829
-0.6231054860947495
-0.3665157222325413
0.211042593199037
-0.4376689620092025
-0.08381559257199968
-0.9184877850037668
1.108602906976944
0.05806566866502379
0.2486272318772961
0.961424226342072
-0.1889691112274788
-0.1747883630559164
0.06630239137122772
3.253255822372357
1.733811839161105
-1.068588374124808
2.824708943341653
2.850425224184213
2.596945447716351
-0.7461704969157829
-0.7502296379493554
-1.279967995335142
-0.8228175607418839
2.018037339821256
-0.06565198379364452
2.639331731727692
-0.2669851520915734
-0.07098142857648299
-0.06190865717707938
-0.05317191002554827
-0.05711550880292585
0.03633324672210796
0.02405454433484404
-0.01386879489030847
0.05425359400494978
0.02618234888715112
0.1480841829733667
-0.05630191836253552
2.446373133368726
-0.8094519405455223
1.937343664588904
-0.1168029334551579
1.662397619172425
0.268001377649718
-0.6832499533431006
-0.1533015180543537
-1.305456242731377
-0.4291589773314251
-2.053122637896906
0.3093010407968013
0.5569278789637738
-0.3748026674584758
0.08900910021864381
-0.7598778689046604
0.4945139820441121
0.1770127547327312
-0.1952357105358649
-7.016456154970184
0.3943713631491389
0.03609337498439024
0.2082155298854915
-0.08705615138300353
-0.9822736981059851
-0.4094423007725931
-1.40109195009317
-0.4027974723002581
-0.7668572728864544
-0.8063471003710229
-1.443495136020825
-0.4461125106137658
0.1365247391129063
0.2591073595401798
-0.1487539019131356
-1.166486652027644
0.1695920088348014
-1.06429466720565
0.04202457992736716
0.004672032826582516
-1.405560912385192
-0.2198953395018675
1.007165521662761
0.1400844428752256
0.03584138864610376
0.617691338544786
0.8057729584843434
-0.03149512551827616
-0.9507991546284333
-0.437786771390862
0.0509264822538086
0.8102527439911104
-0.8278597109278859
0.01850238162609612
0.6629343922843191
-0.008906967014784382
0.8490384011343173
0.008229479789343271
0.00877410755572222
-0.0617755160690089
-0.3116804922941398
-0.1252587156910048
-0.3931031253962993
-0.1603310083714591
-0.6947106800503058
-0.8108159572958202
-0.04262508024934765
-0.06311895724250903
-0.3873792207850644
-0.2878331649133505
-1.086753493382039
-0.2441473685596923
-0.04669321140367901
0.01685063955987093
-0.1196762401700707
-0.5422920221815418
-0.0449456501637662
-0.02814845920097268
0.009792832479792639
0.08002016970571421
-0.09418804668527191
0.08307959847725022
-0.8103050802732613
-1.121768576186327
-0.3762201633829017
-0.4424978438396679
-0.6605943104846655
-0.7330866270176112
-0.2104147366422348
-1.246476469421946
0.06347628445231657
-0.214881131136272
-0.02178114872943669
-0.7403229202725961
-0.9442527418980438
-1.075589683615966
-0.7953144087966617
0.01883111391543504
1.67441960238176
-0.9611216305350722
-0.4713546705785457
-0.3800276192163238
-0.2491782472233854
-0.1624272592732782
-0.3033866200530585
-0.5867296568971172
-0.7942594354013561
-0.3951250999314682
-0.02292761937716422
0.6975904384186673
-0.1081376014572416
-0.1951653881874551
-0.1301802416441082
-1.005193315481384
-0.2404339909803423
-0.1511290924825363
-0.07802878631890973
-1.124552414315252
-0.2853823664497501
0.1261953634962129
0.2126890568285052
-0.3592775431236958
-0.2264582199113206
-0.2792631023523609
-0.4700633687513838
-0.1234250398742665
-0.04024760410877847
1.168651920269168
-0.05614516128271171
-0.3143361526576565
-0.1483552808912378
0.7391188864213665
-0.512537609660437
-0.2039722984064911
0.08664259612158175
0.1806559156563999
-0.0877988643636545
-0.1494621969936039
-0.7587566489839361
-0.4885204266465091
-0.1261147859554717
-0.007030003954237241
3.277035622222429
0.2111266380439806
0.06230728551397691
1.019183424952593
2.372248708482957
-0.2454520462475009
0.08735055147474607
0.212346316687551
-0.2555983693501803
-0.05421043216194309
-0.2614653078968757
-0.4143328948562547
-0.4277456189311568
-0.5744279160784598
-0.9826466186112539
-0.3189816212605442
6.131662849389372
-0.1521582726056238
0.08968290684027627
-0.7368325924459884
-0.8825125888900642
0.06229692157026474
-0.1330849150949809
-0.367318869595066
8.001151993396485
0.5833054137556407
-0.04342055598091123
-0.357447652225477
-0.3833097061149429
0.0397892565006631
0.009973282152853997
-0.1784738974048438
0.6411831430116861
-0.3272261279623705
-0.3177147704277129
-0.3139852266320358
3.426203716650024
0.2504843137784332
0.5327018959151055
-0.2707057791158695
-0.1426534786123917
-0.6840604208486051
-0.2432815392634387
-0.3136940906071769
0.4030568682739191
-0.3862991577468122
0.06719782582638778
-0.107414460156891
-0.1618242987014212
0.05919826326422559
-1.656811633413348
-0.4072125834942321
-0.3271821846483967
-0.296025837181614
-1.487667457753728
-0.1305270666825985
-0.2329944355711228
-0.3447142834725846
-0.63287678552851
0.3138827584734659
0.1516632069544986
0.3671803122276889
-0.1911870037857142
-0.01183683254335888
-0.1344825418596859
-0.1291607453561357
0.05712786553946914
0.07171438767854825
-1.351193358138899
0.0122683009243273
2.272836047894955
-0.3439216846198246
-0.3459595563533065
-0.3760069813519889
-0.5664801867252052
0.02672894232474933
-0.3903839718253765
1.836258544309464
-1.213193333645436
-0.3984696711517648
-0.2765770458781846
-0.3417165752799569
-0.2981352863779274
-0.1611576682165432
-0.3840874282874728
0.6139889894119046
0.0314997460227593
-0.2960388435628117
-0.3402569226408576
0.6440616677785498
-0.2555994487818544
-0.2106361082909975
-0.3088904537053649
-0.2497188886749489
0.03366717141730461
-0.2262901632637486
-0.2770795671047382
0.0519157124933128
0.1564523718864515
-0.1597841648069481
-0.2057068357148588
-0.09156919880802579
-0.1990072232672487
0.1721929531555382
-0.0802347032514908
-0.9404253834972686
-0.1601075957750071
-0.3514849229038881
-0.5104435250498672
-0.3644371044117953
-0.4024504666633611
-0.3573553440002135
0.1905118149604819
-0.3178658415738657
-0.1203758378164133
-0.2684450493690505
-0.2993955966462413
-0.8526292112564946
0.2630690834289538
0.1269737048594946
-0.2329990254983046
-2.758931338644375
-0.7396601661334683
-0.4311077312677518
-0.199198926131576
-0.2834609438178821
-0.6141971363601567
0.04126772630444748
0.06362203926718177
-0.4677895404361735
-0.7767495403604158
-0.2772492284493823
-0.3573080492388962
-0.337070032836878
-0.02690856944443778
-0.09675645830328349
-0.7607979783769728
-0.2302521081714446
-0.433882060063194
-0.1147431222505095
-0.06212997723085077
0.03563218305504528
-0.650820732224644
-0.5145554206721751
-0.2680890659887617
-0.2187594777980794
-0.3373533466509133
-0.4543011979213913
-0.09582878204230826
0.06737115657447683
-0.5548493607891823
-0.1574999417151052
-0.451141670322783
-0.4123203304563144
-0.1114608333873578
0.3046292105740047
-0.786108264837279
-0.0785735787031228
-0.2940859488397522
-0.2057321832365363
-0.3602099650860306
-0.6832045597519594
-0.3917562074942879
-0.3638004250300086
-0.08923723712830567
-0.377339071810034
-0.5057521816292737
-0.1806700889738359
-0.270659450994892
-0.1536565193130813
0.04995739861909797
-0.2285350058792164
-0.6140367268444257
-0.1720186568501307
-0.6250943139400141
0.08658446413054083
-0.2691812709837037
-0.3370562754760011
-0.2484422463072172
-0.8738370324318806
-0.1702779797330582
-0.1988794887068543
-0.06729395983058448
-0.3123447191098839
-0.1813633602143437
-3.409407972099515
-0.5817065871303494
0.1137667834642114
-0.2775022061592945
-2.787787449950783
0.08797835920045928
-0.6439642804408192
0.6275240898731544
-0.1995872900379659
-0.1257938971331438
-0.6833944034641444
-0.3006325545744205
-0.7263545788978207
-0.1582498395540927
0.1258140717100267
-0.272395078827025
-0.516137835899816
-0.5142431435077999
-0.8612315384840006
0.4155595711790203
-0.7091941075849034
-0.2395507739353571
-0.130666080867391
-0.08976786225357584
-0.1168487926147631
-0.4977392138666629
-1.148367288554817
-0.2127658770413569
-0.5252838220816501
0.0678938993273128
-0.3071103486463337
-0.5336196940601144
-0.06493892657794186
-0.54941620692903
-0.06553638094785406
0.5804602926768309
-0.1801752998206663
0.2133318159359487
-0.1684923023150249
-0.4576009410847224
0.298390531972561
1.085897622862811
-0.08848721946880503
0.02948267571697123
-0.7166943436652548
-0.1815772095937005
-0.2105000396246618
-0.2530057222034482
-0.2668545542802329
-0.1474390426247673
0.07958334657233322
-0.3116171728853694
1.239354265857327
-0.4491883967424933