/*--------------------------------*- C++ -*----------------------------------*\
| =========                 |                                                 |
| \\      /  F ield         | OpenFOAM: The Open Source CFD Toolbox           |
|  \\    /   O peration     | Version:  v1906                                 |
|   \\  /    A nd           | Web:      www.OpenFOAM.com                      |
|    \\/     M anipulation  |                                                 |
\*---------------------------------------------------------------------------*/
FoamFile
{
    version     2.0;
    format      ascii;
    class       surfaceScalarField;
    location    "1.6";
    object      phi;
}
// * * * * * * * * * * * * * * * * * * * * * * * * * * * * * * * * * * * * * //

dimensions      [0 3 -1 0 0 0 0];
oriented        oriented;


internalField   nonuniform List<scalar> 
37423
(
-0.1090732676675481
0.4215351372272944
-0.4552832033106048
0.1428213337361235
11.17493898255585
4.860387529829369
-16.03532651256787
1.607886895682355
2.838991085396136
-1.494380249462979
-2.952497731540994
0.5816191414662965
-1.106472899844759
0.5248537585753204
0.1169434672399711
-0.1686993863937372
0.02843054604612414
0.02332537314744012
0.03511017995498699
0.1498279148481627
0.3106340901065424
-0.4955721847791701
9.177595055831024
-4.682651167560904
-10.8347235931977
6.33977970494594
-0.03853900080058714
0.04218750147753379
-0.003891479759307623
0.0002429791465928859
-0.1281414586395576
-0.04325215403374374
0.3376899257691786
-0.1662963130359617
8.642060873545111
0.6479534692320504
-0.447198424448204
-1.411059747952751
0.4591194291074844
1.399138743348886
0.2797074839439916
-0.5310133750422812
0.7675754829362279
-0.5162695915978658
-1.138037441260948
1.277034739799024
-0.1389972984601715
-0.461900134015278
0.4881306915168362
0.6061497544282363
-0.6323803117502463
-16.25777800820668
8.826600769176119
-0.05992461252693215
0.007600295077089104
-0.1238329425035842
0.1761572599983235
-0.4535635476784279
0.7972346152614922
-0.06396358352947999
0.1902241418958076
0.01233250708871281
-0.1810963638792178
-0.02146028502501609
0.09395707034564349
0.03019795983064899
0.002149060505632988
-0.1263040906178379
-0.02348081379017823
0.05861882902071713
0.02607666298265868
-0.06121467815206796
-0.2205959510300197
0.3781893163932531
-0.4231178254335071
0.2655244601141859
0.4081520915962391
0.6805135797902212
-0.2710611648543867
-0.817604506355229
-0.1189204265532195
0.1284010959100954
-0.1091098439787735
0.09962917468596365
14.65209143285365
-17.52060124118271
-6.280392673322674
9.14890248119106
0.5931272133234639
-0.0793754705838645
0.09522680019966291
-0.608978542914715
-20.27768211933317
9.203646783192704
11.07403533611284
-0.1672191224865326
0.1262710982538695
-0.4126155233428817
0.08843948770234879
-0.08010915058219645
-0.1716387565761669
0.163308419503912
0.1671552425757694
0.01101884444447116
-0.1803423091011257
0.002168222165889958
-4.260809117286082
-22.37064713100838
2.685143200092494
23.94631304751228
0.2119084548571429
0.4029626504121613
-0.1608921141220954
-0.4539789910641867
-0.08619253632452716
0.7062530828172165
-0.02383348570915896
0.110794009371093
-0.09982798604958146
0.01286746244649006
0.06626941896779646
-0.6388450890458518
0.3274235997983979
0.2451520704140119
-0.01707764361370458
0.05828122491090736
0.09541389421997011
-0.1366174754198702
-0.03369163358039564
0.009322520557696693
0.1200832636259365
-0.09571415056375593
0.3006451968354214
21.37587615535589
-19.31521328424353
-2.361308067977022
0.4231711540816793
-9.526244714133103
9.811788657326352
-0.708715097625306
-0.02637444297120301
-0.04244503124281961
-0.1015105017013546
0.1703299759884056
1.699685574962259
-5.866972204396094
2.114676733632309
2.052609896090823
-0.1275499532810808
0.001694517281670178
0.1452458673531602
-0.01939043131881607
0.553916790732938
-0.7023206912505466
0.1918771056613353
-0.04347320509772567
-21.02057179800923
3.712166155538009
7.14478439891587
10.16362124331781
-0.2220467247070826
-0.9163483013330371
0.9912550712776379
0.1471399550210813
0.3514912004586807
-0.004715994614704281
-0.439836907416579
0.09306170156702384
0.05449875527078579
0.612443763692435
-0.06665124142931302
-0.6002912773832632
-3.584033666613337
-21.6536742035395
22.56025985960727
2.677448010494351
-0.941546762978006
-0.6720242649118919
0.1533438454209037
1.460227182484699
0.5180198388029222
0.2455141467926855
-0.5240072532209786
-0.2395267323193753
0.4193518175451935
-0.1799258116873448
0.3751765544726136
-0.6146025602510491
-1.396646748501104
-9.359136811472096
10.75578355954511
-0.7144839741611664
-2.708416315137247
1.142884735690681
2.280015554506752
-0.2555501734049117
0.5887094546464273
0.01588680581760776
0.1584282499420426
0.04724888607736667
-0.2215639417502843
-0.1335747298420415
0.04620729938255009
0.1045255327817838
-0.01715810227363521
-0.5028783171206518
-0.08314798784041434
0.03449967667975509
0.5515266285069771
-0.07607918686378351
0.5882736345931552
-0.8664753018347896
0.3542808541943342
0.2592552944084967
-0.07269855996353712
-0.0217306980637869
0.01307516729785654
0.08135409075864437
-3.220253799636126
-0.5791988779841758
-3.055923052871816
7.274637097720247
0.03233303763459521
0.03569080927389139
-0.02902958113609186
-0.03899426573318392
-0.00337146328900652
-0.07346212359160867
-0.002609404783266455
0.07944299169520712
0.3935523769585265
-0.3780972120703372
-0.1269993889108466
0.1115442241355972
-0.3235045008395534
-0.1484419864797037
1.152460067267236
0.01865439671717756
-0.09055183831552627
0.01726211495178334
0.05463532671850019
0.1092559201844704
-0.2966593957210158
-0.1542149797550184
0.3416184553450742
0.3314981205179749
-0.7824850969581186
0.2125013808102208
0.3477368838671319
-1.140145733337321
0.5799074687651719
-8.539756100006391
3.957367956221375
-4.833240931152364
0.07618906157169643
-0.0464476605411572
0.01763003534276682
-0.04737143630217194
-2.382013195415198
1.014505075495676
1.121863439479588
0.245644680579493
-0.5339906594428231
0.5335587514555445
0.09354866740535014
-0.09311675927832379
0.02328575035158852
-0.2884534839858162
-0.3568683914348719
0.622036125090746
0.1159316527993609
0.0793852072944214
-0.1560150358229482
-0.03930182420325776
1.631856996644194
2.915342329418753
-0.8829319826340102
-3.66426734292692
-0.01714969340564728
-0.3962027896439774
0.6445002069134858
-0.23114772361248
0.6465959285905062
-2.090320703112422
0.5177587378864505
0.9259660368157683
-0.01192853035628828
0.0112989881549761
0.0006295422365344928
13.83276111066098
-1.201346776097934
4.835703307754561
-17.46711764257213
0.7510722053796588
0.06738492566615409
-0.01465061267637391
-0.8038065182924484
-0.1843627528817168
-0.5266134095177384
0.03293870369357703
0.6780374587852033
0.3028651696885548
-0.1250041070964104
0.0911758726317168
-0.2690369351290119
0.004300074015314528
0.07243534380666718
-0.06950360333463189
-0.007231814426830416
0.03594237002932994
0.02893287458323284
-0.06487524457947746
-0.078203969833628
-0.5352835915319097
0.3579373879642532
0.06950450165380843
-0.04200298523949007
-0.107362892994351
0.0798613766423075
-0.046147988159641
0.04506833639179855
0.001079651809525918
0.06378317820233963
0.4310361815028813
-0.05861624565832744
-0.4362031139686158
0.03589138837554327
-0.01246564581780129
0.08006613884667753
-0.1034918813590715
-0.1139635721629348
-0.235703690061192
0.4589231824377538
0.2951469751210054
-0.006147896809122843
-0.03104669111204519
-0.4634388477662673
0.5357266101311731
-0.04124107117090944
0.1663126064413441
-0.03112059158489684
-0.1785515862548032
0.04335957147983039
0.01315804058613849
0.05299324272991161
-0.02125043625925356
-0.04490084700801467
-0.153364579255138
0.5305354918787503
-2.02040828749252
1.643237375086505
-0.5944805542889209
0.7746312585066151
-0.1310812808783916
-0.1554192859690322
0.20276433573339
0.4236985208027935
-1.182641570587806
0.5561787141792767
0.4674093985171935
0.01275506103693652
0.05950262709128457
-0.06082768254385575
-0.01143000553259152
0.03859055431350856
0.04960294447406726
-0.1831398494800967
0.09494635075485207
-0.6190381596982447
0.5897079975386127
0.2305685050630316
-0.2012383428404814
0.08525576024074219
-0.04227592503862526
-0.1052564231744391
0.0622765880226843
0.05405353494775466
-0.08982923466970823
0.4999872628664443
-0.4642115631102384
0.05119035596579129
-0.07504508801279773
0.1112701291775477
-0.08741539707571067
-0.1051257272882967
-0.1460750345422634
0.3803171818277026
-0.1291164200123201
-0.3225911472354563
0.4717685273171583
-0.2543031073888974
-0.028102043556252
-0.02797521455515668
0.1242227280683209
-0.06814546990600009
0.1216857284034666
-0.04747454543298925
0.08488917154715438
-0.1591003544525676
0.08980463818388609
0.01048378930614719
0.006943426265521731
-0.1072318537180904
-0.0627012481294083
0.03728460817841767
0.1281495778289939
-0.1027329377755518
0.4166824623198967
-0.539196992545793
0.07769078520297468
0.04482374505238867
-0.4329835571432957
0.6585489300688537
-0.2166732840728301
-0.008892088763522465
0.06616047538175718
-0.2274957928144438
-0.1983270658373967
0.3596623833329735
0.02735385733496313
-0.018582307824373
0.06338196080375638
-0.07215351026791481
0.6177232225063447
-0.3623837167287081
0.2941548922364132
-0.549494397837011
0.09136626750131412
-0.08184787145462315
-0.02489657267513435
0.01537817669212622
0.1175239985895077
0.31811045216686
0.03177494785448019
0.458109797774522
0.1929729523257458
0.6947548301120732
-0.1080782986148741
0.2139257661502197
0.7896263700868815
-0.3087973060392895
-0.2085326825819522
0.1423416187803131
0.1613292223787079
-0.09513815852146398
-0.5230197553067636
1.303339724384708
-0.5597180466639504
-0.8920636641118598
-0.03168615728658995
0.08605994105025165
-0.01955033267701877
-0.03482345103781103
-0.1441185505831117
-0.5179024609687373
0.365680448100723
0.296340563725614
-3.172450057487551
-3.011369919426464
3.820084381767428
2.363735594878866
0.3273712190777215
-0.2831368868840193
-0.5833580103683051
0.539123678334602
1.825406586413774
-0.402990243884465
0.4766431788903983
-1.899059521423125
0.3547229768365167
-0.5289692716173175
0.2405157138421403
-0.05402175499679599
0.3299226875627851
-0.5375210711921276
0.2616201386734335
0.1281357862384005
-0.1302058465610759
0.05951381263907083
-0.05744375223661234
-0.1226890336579384
0.0344127153704678
0.3164676298404313
-0.2281913114860582
-0.07503819662887407
0.0126373455146784
0.05149608748962176
0.01090476367053262
-0.1949216804651761
3.935533512502672e-05
-0.01874694598851787
0.2136292711850241
-0.08974121333077353
-0.5088614392687341
-0.009473055148140303
0.6080757078471757
-0.1583782208186588
0.1191508563116115
0.03922736453279028
0.2242948803481912
0.02561590123831783
-0.1682593097609515
-0.0816514717224255
-0.02119354279971346
-0.08360231871045717
0.1223630191708523
-0.01756715760552767
0.2581943063102305
0.04683286064739928
-0.122052526283475
-0.182974640616154
0.3156727182589066
0.2158016575109992
-0.6744014910669198
0.1429271154074929
13.66632255111655
-9.154787325891006
-22.47618902801088
17.96465380254403
-0.5884628624997257
0.018010755109783
0.6189877414659344
-0.04853563395790388
0.1124936744878322
0.03660453103547915
0.001420287919486302
-0.150518493363053
-0.06975254257147662
-0.5359432652314216
0.610818491793983
-0.005122683938976833
-7.052467928238709
-5.468987985471849
-17.32366522329533
29.8451211363954
-7.696025594117974
10.94792588880074
4.198360121136363
-7.450260415603814
0.09110084371530999
-0.08042608901157491
0.04211737228401597
-0.05279212693366149
-0.4710646166368152
0.2319685326732594
0.07699540947795012
0.533022582587619
-0.09242908415389985
-0.5175889078246024
0.2352768685096071
-0.1202399413003902
-0.2611119617252032
-0.2903386488975307
0.504462874718364
0.4269491128278145
-0.6410733384940182
0.01561288227352347
-0.1755594872033563
-0.4417418038430993
0.7679416586836797
-0.150640367528154
-13.61971354187561
6.202031987660431
1.005704309561895
6.411977244390441
0.07370368939607014
0.001564600853692245
0.1776224877398214
-0.2528907779218222
0.07871059372521794
-0.06753174040911883
-0.01117885327783774
-0.2127817687418772
-7.054317849439895
7.267099617802271
0.3944131177990698
-0.3726597060234779
0.4803567718893724
-0.5021101835999827
-11.03298199554336
10.44561829148291
10.76622406244463
-0.03936765624050163
0.5273294414555884
-0.0942536318533192
0.08892458188579748
17.95939967070559
-17.86646079748784
-0.09293887336470397
11.7503272809753
-22.83447988729822
11.08415260631804
0.8933479070976289
-0.1436955307836665
-1.5592560279059
-0.07191045307928168
0.1179120726881009
0.007840898468684486
-0.05384251803691609
-0.1139501017041525
0.1784293490059964
0.228837560904894
-0.2933168081954071
0.4656076707899771
-0.4431189199842934
-0.1956452139090849
0.1731564631551298
-0.1295032117421306
0.5417507536071365
0.4376918577132968
0.0886627499932235
0.06191902694119155
0.4876027263896569
-0.6068461333186601
0.02612664774721698
-0.3067600080358916
0.09995654133042456
0.08656352542082504
-0.5552623308809603
0.9264304076879781
20.79940670408498
4.738329592165163
-26.46416670379681
-0.5827481962477739
-0.2109075676083098
0.4990824411393944
-0.4090993679436282
-0.1340369104459755
0.04405383730876224
-0.04329808060012869
0.1846191886768008
0.01218587548649336
-0.1535069835299634
0.3325279921627768
-2.615609475865531
-9.544128761603281
8.939484437500299
-10.4155801744523
6.2909893504843
1.508981347873848
19.31300694013786
-9.033833517888986
-10.27917342229363
1.049292330156175
12.4309903719167
-12.83232923305013
-13.71846687156924
5.929822553859582
21.10603553498653
-13.31739121725323
12.51137137176677
-11.73179846783823
8.458561265462521
-9.238134169305873
1.15903620910964
-0.6097124983527533
-0.2551688183386999
-0.4818099451530243
0.5816307743913002
-0.1391884854489348
-27.4246684874716
10.23062301634591
17.16901931810549
-0.01769582679950484
-0.1338351192107465
0.1890961995211431
-0.03756525342739389
15.85701388963154
6.693856273736776
-38.22762879628822
15.67675863298896
-0.06449872386833629
-0.59917194789925
0.04906811154296725
0.02857082362362751
-0.1425989571622717
0.0500154074384761
0.06401272616644761
-0.006655102078532256
-1.643840950725438
-1.959890945286068
3.917517518503224
-0.3137856222217241
1.841279461835428
-1.188010696789459
-0.1151863165193727
-0.53808244838676
1.370746207038501
0.1165529909639863
0.4796243215878757
-1.96692351939423
-1.143459478789441
0.1263661801861762
0.1813270075081457
0.835766291394156
-0.09250156824329223
-4.816954559297597
-5.317355351557607
7.42814107411702
2.706168836902289
0.7354959111412509
0.1804966392090655
19.37769314000538
-20.83666736996473
-12.25949264141303
-0.1750910785971659
0.4573636503818916
-0.51426896472891
-0.2833068627979223
0.2796733667160557
-0.3790737935077509
-9.718406897336592
21.08916984423382
-11.37076294703167
0.7523387890700093
-0.5799097394662487
-0.6954488047542362
3.785617855283434
-0.05735453040357428
-8.545217884065197
0.06885007501719984
-0.0303020502602064
0.04889261354630885
-0.04812084397861289
0.02953028071739098
-13.81525961205427
14.80503321092202
-0.1926441916605257
-0.01602417725948656
-0.04033105740796154
0.2489994264228706
-0.2267211990251974
0.01483814663443201
0.2809123648181919
-0.06902931237137362
-2.776953685675141
3.561871584308134
7.191083599112497
-8.753077362400662
-3.271247167973184
3.920957890060374
-10.10872889826838
3.41081732231435
-0.02737584768942757
0.02225940997821765
-0.06684651948835107
-25.49535617936205
-0.1037232144218371
0.7209412735122094
24.87813811998749
1.811987968507611
-7.942968960473841
1.998354047243415
4.132626945466289
1.882213677141423
-0.3938666967513827
-2.93814144675754
1.449794466586318
-8.74607387780908
3.926880191164927
36.28966165063336
-2.97108831721921
-8.485622517366117
8.181566716726158
-0.779758143506193
0.04157916142610868
-0.04624698049247888
0.7844259626538171
-0.06006773637005448
-0.274321738635705
-0.1393404174244724
0.4737298925793337
-0.3556337058840447
0.1685757364146058
0.04894958523790802
0.1381083843641943
0.02502371747597757
-0.02072364342241627
0.0370216142061354
-0.0281187027557453
0.1659795664561058
-0.1748824778360041
-6.534055590499483
6.567044105030901
-2.930424950960598
2.897436436760867
-1.323930882392927e-05
0.0002226212900737715
-0.0002093819751867586
-1.323930611273249e-05
-0.006755810997874268
-0.01029319295155996
-0.1121795089629647
0.086390099922641
-0.01687879358173668
0.06242182312453725
-0.1319331294026141
-0.1289663977187032
-0.2738870385931827
0.3749872249506925
0.02786621143914661
0.3073766644911729
-0.4760543312655039
0.02968675163592543
0.1389909151702371
0.1750261307558261
-0.2441819486128127
-0.1063084550004695
0.1754642729264993
-19.27997648866602
-8.179978174655064
-0.05056016275168118
0.1150748901123091
0.01407828778747836
-0.07859301508201852
13.03500323137037
3.791801612981957
3.265470971194832
0.02974412502800142
-0.3629521036618845
0.03405992433161112
0.29914805439537
15.26815045536513
-14.02072086404109
-9.639205732696768
8.39177614135931
37.54988358651396
-19.85031520405478
8.068544267207153
-25.76811264970054
5.262588152046763
14.81753856569426
-1.424667211405676
-18.65545950641992
19.32430999872362
3.101594295286954
10.85381243967131
-22.84979278029003
11.99598034070372
35.04124630468959
4.820810409955424
0.7296106183417223
-40.59166733349919
-0.07933135410814753
0.1290247487823634
-0.2455450281004689
0.1958516335127203
0.1864528635738658
-0.1397028910988333
-0.6190696907922706
0.5723197183116894
-0.1338632534429956
0.2747247251748526
0.07521474683359224
-0.2160762184667775
-0.06292655723909289
-0.004471211840827726
0.09214695278734374
-0.02474918368776942
-0.1267427831045794
2.0129166117535
-0.3971186935902386
-1.489055134938571
0.2880717223769693
-0.5268119899152929
0.2117417746685964
0.02699849289563011
12.13015809817596
-5.692098945670688
-6.438059152640929
-0.2402994523081815
0.1251763518729949
-0.04071278023775986
0.155835880728223
-0.3429113408279427
0.4924754438466767
-0.2065907139465157
0.05702661100911427
0.1258421672278269
-0.08882055299748641
-0.05468309481426543
0.01205984531443176
0.04262324952542575
0.6532143548375055
0.515918166662805
-0.5232224106393613
-0.6459101105677965
1.920402104382288
0.3634891870283663
-1.054317974417418
-1.229573316729051
-0.1323036755887687
0.1078803386720475
-0.1082452997566095
0.1326686367402594
-0.04933164728945202
-0.1278699906278743
0.07924509774830339
0.09795654023334116
-0.807940360038328
-0.776346480457502
1.776365415669552
-0.1920785750494475
0.3381384503627876
-3.991228570547905
3.333965066543211
0.3191250540143022
-0.8380111302072755
3.424970748761428
-2.609572297003277
0.02261267860666023
-0.4757726356829669
0.2343233766517005
0.3075993690745916
-0.0661501099519002
0.2135057543223697
-0.3286146362531514
0.5029675333651367
-0.3878586513549053
-0.06117813767564462
0.06531089375591166
-0.00413275603603859
0.09206887634413248
0.1398764073058593
-0.2319452836391215
-0.06427357180909153
-0.00211049645878369
0.07509976745619779
-0.008715699146344676
-0.05815459045796928
-0.0974800961380335
-0.1036917415159553
0.2593264282275481
-0.06018834556533464
0.08876865735339141
0.1518638289394065
-0.1804441406582549
21.17473990405935
-13.62072991039471
-13.99518799933681
6.441178005457913
-0.003984060330410943
-0.04861081863177324
-0.008703835743482307
0.06129871475142691
-0.02848024893790042
0.03307136874555293
-0.004591119789611747
1.979876731559969
-2.592379130427821
13.82729142580382
-6.621529293584263
-7.205762132372265
0.03906910328691332
-0.08536640848576842
0.00502853299573553
0.04126877225644921
-0.0467243804919007
-30.27181987305082
-0.09244752155902447
30.41099177491964
0.1102130840487106
-0.06539493922042451
0.2128840330651659
-0.2577021778344182
-0.04800463393874262
-0.02578621884498483
0.06667805742519942
0.007112795393574273
0.06588892322395229
0.5857017537664515
-0.2357716077950523
-0.4158190690338028
-0.05859202908945594
0.003583025876949516
0.05500900326016986
0.01546658821094426
-0.01131940148735363
0.06591421231245177
-0.07006139899525766
-0.001798178827907298
0.03361082933331673
-0.01855615562932259
-0.01325649483273704
0.0291685424010333
-0.01707203127269244
-0.01209651109056325
0.001373928861426385
0.06103960024306221
-0.06241352906100942
-0.136894432889323
0.5655977202381889
-0.4062202631086791
-0.02248302414851168
-0.007333382130313561
0.08114764733602224
-0.08611352260450153
0.01229925745527258
0.08066173480083721
-0.4295980236034056
0.4082675517452407
-0.05933126279432355
1.272994186779882
0.5196406565581919
4.202980574108524
-5.995615417282885
-0.2850974251283315
0.1427071918338018
0.04313147878945255
0.09925875457057898
0.079269244123242
0.0160015279640104
-0.09527077202938415
-0.009455624866576614
0.1135562156448862
-0.6172319233084516
0.5131313326337773
16.4359784142868
-21.09792837000614
-0.07396261641637074
0.1462928728254805
-0.002077976174572482
-0.07025228019311849
-0.4984307702575714
-0.0007375254145407244
0.49916829589032
1.53174336071355
0.6219988210232572
-2.276910431816753
0.1231682500476672
0.7975896166484066
-0.01751890176863909
-0.6772423302405688
-0.1028283845665856
-0.2483650035880344
0.2984466388957569
0.08222545667538464
-0.1323070919041065
-0.04528207422208631
0.341297584507737
-0.3659470241239553
0.06993151395811489
0.1003367618220757
-0.247755061516008
0.1521085829014936
-0.004690283160440727
9.562265138765438
10.20296344339457
0.03587171470308011
-0.4398261164059744
0.08003795495347288
0.3239164468217811
-0.2250488010648867
-0.4369387009628085
0.5895786494609287
0.0724088525784303
0.01422667365628468
-0.1411226087186525
-0.02003991604396271
0.1469358511679452
-0.2702603127420981
0.002486024088489495
-0.006335983575905093
0.2741102723113227
1.441239878115166
-0.5661889319466277
-1.673579523993497
0.7985285780235538
-0.02501399917500255
0.1214543678449782
-0.1070961997751666
0.01065583116909446
-0.01611010873185918
0.02648389449158195
-0.1036014462748157
0.09322766055067921
16.1134102453668
-23.65815169944593
-3.135141123620301
6.266985520143557
22.91312150789909
-1.376843183342627
-0.1724517658482797
2.164861606585323
-0.615566657293967
0.1620043076504625
-0.2666398346914234
-0.2454748082710541
0.3501103353592865
-0.0815311651188102
0.008364676803501985
0.02581586970269006
0.04735061866614785
-0.1009778445995722
0.005442353270195023
0.08427493121664711
0.01126056014132321
-0.1345561132936044
0.1730501379660118
-0.06486846758696435
0.4703567228075532
-0.1779261801028715
-0.3850903205082876
0.09265977789219809
3.189534193527634
24.57036774957119
0.08728219588211177
-0.03786223520025139
-0.2471332731884441
0.1977133125799735
-0.001031481422129732
0.3864044119144561
0.07600196825325847
-0.4613748986612214
-0.4874170954345702
0.06809815783690613
0.08397489277016955
0.3353440449147652
-0.5231844933117319
0.05382435445290194
0.2580013868872941
-0.6076323926355448
-0.05151400525204234
0.7042050635408584
-0.04505866536577074
-0.03506103179971871
-0.2443687560750918
0.7286832377695103
-0.4492534497255755
-1.575376324578824
0.02056155377633431
1.554814770812788
18.59329070884348
-7.379796207382517
1.821508729948709
0.15757006817783
-0.271781640874958
0.04942774090582728
0.06478383190226662
8.996884166993079
-32.51058863973756
32.2376484988465
0.03672270308526517
0.06086689225400077
-0.05899904098871799
-0.02871422562412695
0.1462347113052859
-0.008399495454320028
-0.1091209901752851
0.06381236696990579
0.0288296326486148
0.04797365798957435
-0.1406156575685781
0.02903761320492977
0.2646405637098742
-0.07460399298163253
-0.2190741838685154
0.4322494690386542
-0.300344436958687
-0.5179172980220881
0.3860122660338338
0.07055073596177366
-0.01920362218741764
-0.07810342993203033
0.02675631619292708
0.4631208123308315
-1.08581857807061
0.1886679873319678
0.4340297786310826
-0.101614196171964
0.05900752245355074
-0.03135594267270209
-0.06949811523363783
0.06279440294606572
-0.1147009479862318
0.1214046603034814
24.19614294968457
-12.99262233051557
-20.67737441006975
9.473853790845938
0.2112429706500795
-0.1645722666856966
-0.04667070392146982
-0.3184236883194788
-0.03487263561826574
0.4615418029532206
-0.1082454789604602
-11.58503866559737
14.83285339067464
-2.127010843622508
-1.120803881157546
-0.02083075418659917
0.1155319323474963
0.01796062462603299
-0.1126618027483334
0.05666294878108269
-0.1637249220116022
0.09828181880528528
0.008780154483871545
-1.289116387099596
0.957551184453862
0.4483971260723424
-0.1168319233409431
-0.01883575620324902
-0.1964006993670782
0.1958706498547368
0.01936580576601852
-0.8449871768415789
-0.6284336475492293
0.8637083261210896
-0.984187282720591
0.1973803008969527
2.554009114682596
-1.767202132897698
6.94761120900807
-17.46125303375866
12.39331182119798
-1.879669997118345
-0.1059950987614085
-0.5398088470092397
0.7500030816938009
-0.1041991359298901
1.580265472889886
18.29612739882926
-23.4604265382343
-0.029734799500267
0.08154178207692286
-0.03309309411329773
-0.01871388842361806
-0.5036567879460934
0.2980814961339682
0.2177337438707904
-0.01215845197345845
0.4839857158053217
-2.145034705283077
0.6898677802421483
0.1702169980679624
0.05806606541195346
-0.1576560563684976
-0.0706270070383221
0.4930659071202976
-0.0438832250689495
-0.4823769093651161
0.03319422730834694
-0.09010355267277824
-0.4060188285274873
0.3197434452830751
0.1763789359951388
-1.616005430792773
1.480050458725711
0.1359549721238731
0.117710180485969
-0.1186817522540435
0.02873450863879892
-0.02776293679767665
0.01098345641629222
0.091006268794949
-0.08756346560810237
-0.01442625955494279
0.01459777450647529
0.01723923234012499
0.1143409139624293
-0.1461779207602901
-0.007934864389758715
-0.06577278485085666
-0.04090919111587548
-0.01238037201381216
-0.29137284063105
0.06512434567071361
0.2386288670195807
-0.1452740296179741
0.07558569998844115
0.1122072497157492
-0.04251892004295002
-0.1242813115288447
0.07056898766386989
0.1220243684898636
-0.06831204451542407
-0.5983072735285069
0.7177195306688615
-0.04896415726589271
-0.07044809953804473
-0.002361117943061739
-0.5155187349104853
0.1028709129755178
0.4150089399038457
-0.00377643964754098
-0.002413248879812855
0.1607356038320255
-0.1545459152795803
-0.3266052943695342
-0.1930922955687583
0.4271108917929361
0.09258669826747411
0.0005494479874702501
0.1772496675225425
-0.1598698446875446
-0.01792927074794589
0.01046641252580055
-0.1431721825882719
-0.0248499680663475
0.1575557381861137
0.7418370100199317
3.835167048083831
-3.720384206107644
-0.856619851142621
-3.885256479114024
-41.38255157529365
36.32712025496551
8.940687799410089
0.05742047832213458
-0.1525869677138923
0.08300183684231273
0.01216465259124211
21.5896642355902
0.1866680852809021
-24.7144042166586
2.938071895698315
0.1489320620721462
-0.2009051106286859
0.04445213919141726
0.007520909449078245
8.14907579352225
-9.819462519231994
1.965066554582092
-2.58288716494497
0.8557373638764512
1.727149801129275
-0.1107522600294909
-0.05150750212153084
0.03407802924353608
0.1281817329730268
-0.04775943544300978
0.03527033910730435
0.01248909637682031
0.1260511059106243
-0.06648214756477573
-0.2390917026076402
0.1795227443362557
-0.005454590353058891
0.001528197964223535
-0.05732070071359261
0.06124709312790967
-0.01480479639407324
0.09486893335494731
0.006726737426348771
-0.08679087432483305
-0.06311179051229412
0.00314670048338947
0.1634853250463627
-0.1035202349533928
0.02372035514869354
-0.0772021052428577
0.03700151027677597
0.01648023987343613
-0.05743811548429176
-0.001402998675641199
-0.002699268921805126
0.06154038312780943
-0.5112696472501197
0.07698910209649319
0.4342805451981205
0.1181964236395036
0.08246058894800121
-0.16407724527273
-0.03657976726450808
12.47141313797596
0.7337632893479846
-12.663448446048
-0.5417279815032584
0.2040689354514575
-0.119382658434016
-2.26840381696294
2.183717540111276
0.3195253016988361
-0.3605251692959365
0.5145555385279937
-0.4735556708391
0.6467368388205015
-0.4433869767034077
0.06141757337357454
-0.2647674354030611
0.2563547764278901
2.292807334186377
-3.704586396672951
1.155424286373487
12.89701334035342
-13.05559256646441
0.1585792260526651
-13.66268728201316
-10.3335623312744
10.18099000091796
-0.2121570373028389
-0.2098566831718736
0.3727680584616306
0.0492456621200402
0.3825223824136419
0.1905073867108133
-0.5730297689286248
13.75004864210711
-19.42502191199841
-0.17199857198123
-0.03589914298091295
-0.181777127243704
0.3896748422944557
3.302843510108785
-1.125513106981348
1.736193403515188
-3.913523806972909
0.4098592496160141
-0.9619999678338286
0.5160124086288771
0.03612830973618501
-0.02135757838332532
-0.003816156272247696
-0.06057154765640028
0.08574528236418691
0.3709069867803726
-0.4924253849532224
-0.07385423645980498
0.1953726346704514
-0.2631636402962311
-0.08550203538352287
0.2488317825659364
0.09983389319446295
1.299574197590257
-0.5265209408123049
0.6681866214789678
0.1415854612148854
0.07148091556283756
-0.1116799194254468
-0.1013864572964939
0.2277643646656138
0.3191711825355363
0.0145155704768772
-0.561451117633166
-0.2458149743572023
0.2217851679958035
-0.0056943124510661
0.02972411893556249
-9.459661666325776
-0.5770382007814655
-2.886896469908813
12.92359633709619
27.93572717806884
-0.7159345624908732
-3.653667701305965
-23.56612491422016
-0.00135501864642432
0.1434577778995224
-0.06092790365234133
-0.08117485549853951
8.259601839681052
-2.283480211677826
-1.366763616278536
0.710298794621211
-0.4270569604350841
0.2499851063342211
-0.5332269403430172
-1.223480899357334
-0.2285453172695248
0.09248239798933602
-0.3577031846344443
0.493766104029737
-0.09773949439325511
0.02611133398862938
0.07162816041267296
0.3481027509943347
0.08021801616609588
-0.4407011391263288
-32.05172130088091
7.028400904352273
-3.435042558298249
28.45836295478376
4.35051043365603
-0.6674935600117066
-1.799775203248576
-1.88324167044948
0.02337597506295936
0.007315607265902595
-0.03069158229724531
-0.2056104055695703
0.0006401560140026551
0.6186336554685979
23.39546796652226
0.08954393284372214
-0.08316988723993197
-23.40184201248908
0.1830574503634048
-0.004762933450509309