/*--------------------------------*- C++ -*----------------------------------*\
| =========                 |                                                 |
| \\      /  F ield         | OpenFOAM: The Open Source CFD Toolbox           |
|  \\    /   O peration     | Version:  v1906                                 |
|   \\  /    A nd           | Web:      www.OpenFOAM.com                      |
|    \\/     M anipulation  |                                                 |
\*---------------------------------------------------------------------------*/
FoamFile
{
    version     2.0;
    format      ascii;
    class       volVectorField;
    location    "1.6";
    object      vorticity;
}
// * * * * * * * * * * * * * * * * * * * * * * * * * * * * * * * * * * * * * //

dimensions      [0 0 -1 0 0 0 0];


internalField   nonuniform List<vector> 
19631
(
(-0.001049002250571397 0.03408557064557045 -0.004295038963304128)
(-1.277936735562875 0.2722354771271668 -6.441352753128738)
(-0.05786334375935066 0.06468108309321706 0.0009569408445992142)
(3.302369638627603 -3.957354883989483 -27.83971772157195)
(-0.4549196483510625 -0.5191738283302657 -0.3015503546807163)
(-0.04849919035195352 -0.7201637245814887 0.01335051217916414)
(-0.03660654071064255 0.005489756013361807 -0.05543882718973382)
(2.441205493589024 8.551625324315657 -4.317526670343888)
(-1.300025578710868 -2.109122652529029 -5.464442659192682)
(-0.006446876687196255 0.01244133443936259 -0.009436198984130173)
(-0.4445565679437175 0.2347353381245357 -0.2084072419739889)
(-0.4475367653804241 -0.03842588118234767 -0.08886138146540803)
(1.01611154799848 -0.06788101193667906 -19.23586030493384)
(-0.1683692835596602 0.09812449523443234 -0.05502105076967659)
(-0.001269828703449822 0.001449928410308605 -0.01297705900281692)
(0.3050429501786068 3.032472710119485 -1.227279479843584)
(-0.2831346521236628 -0.3594420085783959 -0.2787769173350395)
(2.147137776540557 8.20333266715477 3.282546187612545)
(-1.585808984359935 6.695792656859399 1.959614289845282)
(-0.2190008861916066 6.545802219715712 -2.258633216889149)
(-0.06923348517530996 0.04507132981172128 -0.003463867603705553)
(-0.1280229002974123 -0.07717400595300977 0.124663488779416)
(-1.000459797022466 3.270485225627402 2.753426899434361)
(-0.02521859222649766 -0.02472874641424449 -0.03031242273634212)
(0.04626089194604846 -0.05375738367988503 0.06380395527223401)
(-0.04372844535049447 -0.02200085341879568 -5.49751224092854)
(-0.227653106112383 -0.1929887795113705 -0.132514290884984)
(3.49736488494412 4.843039554312136 -6.176340162263157)
(-0.2752056179057162 -0.0156407604625494 0.1309812360497625)
(0.001244778345467598 0.0008813047102077718 -0.01256617589117492)
(0.3673056519311223 0.001763511880090212 0.006051989246155824)
(-0.03558163968706042 0.08952631390349122 -0.02430050336973314)
(2.282742179583348 -6.878542941821719 -0.0536262235006415)
(-0.04717814091747094 0.07895522216814004 0.02535649713838912)
(-2.791008616678508 -4.104335532385408 -2.17501378867018)
(-0.6092112612808769 -1.854519920035783 1.752920164387536)
(-4.178302581748128e-05 0.009431840739447377 -0.1105031249648859)
(0.5911178861947572 -0.956512277299238 -3.075979911256752)
(-1.106726193468307 0.9586295892425465 0.3611074887728216)
(-1.013857436047721 0.2430625758163352 -2.072818400315879)
(1.06660635648263 -0.3680735668627999 -6.627627772947185)
(-0.008265403668926148 -0.115658420999499 0.006732826058707772)
(0.03484992220468019 0.01317049009497281 0.001759148589904584)
(0.8518562422430149 0.1754010405063933 -0.6350223033703365)
(2.141079224192775 -2.636714740936913 -0.5617662861492052)
(0.5975271149276282 0.5500512117113335 -2.039772566807167)
(0.02009494349651552 -0.01710583295687392 -0.01909440577078544)
(0.1404635798789773 0.05727196034383476 -0.08012818076581325)
(-0.05164878701402555 0.02340529514827763 0.02292738369450508)
(-0.1203875059396428 -0.04286372218943182 -0.02900031059632912)
(-0.2315322883455931 0.291752986523255 -7.189274159139629)
(-0.4096783512231316 0.8668585944290499 -1.194284463543454)
(-0.07537061194141959 0.00619299505407178 0.03138036970070966)
(-1.519377960963777 5.59533877951802 -2.683971228185177)
(0.3620947229681862 0.07249424312668407 -2.641017561989256)
(1.92537147348965 -0.3626975267000003 -1.369195051076338)
(0.1119347570188059 -0.08308883432189061 0.05229086969977109)
(0.00823483771290115 0.1084250155996722 0.07381174687423575)
(3.964871916829911 -10.47648026469975 -5.213142835576111)
(0.0214942789999775 -0.01035152230331485 -0.02014830308983987)
(-0.01703348219115072 -0.0003808874095422134 -0.003315210382421139)
(-0.09016566590839814 -7.902082688720289 -1.909300036642835)
(1.086209862730666 -8.086333070987541 1.017245395204596)
(-0.4069829906292871 -0.5286482276021609 0.234116340999746)
(0.05581918775300024 0.07820373874768352 -0.05118643754148072)
(-3.975299360459056 -14.6015757027246 -2.913265530949661)
(-0.1041565928623863 -0.03388177808007917 -0.02142865283750882)
(0.0165697906118783 -0.04352538789653224 0.0122751284014168)
(0.1389315188241062 0.2614998861941077 -0.01093638602441557)
(0.02107170754965205 0.01439643859732227 -0.02360159735858656)
(0.01930226932947959 0.005190882138410059 0.01500194050173754)
(-5.723573250901891 -13.08661526655833 -14.71766559282443)
(-0.01541873856406114 -0.0159198639189627 -0.01936784377547264)
(0.07817848458923245 0.00987948658452464 -0.08702606725403879)
(0.1228873791950409 -0.183781785193656 -0.0694164515097688)
(-1.17300249493736 -0.9410658633603722 -0.6283140884091232)
(0.1418619640933931 0.01395087524145985 -0.0641951547673015)
(1.156057196225621 -0.5454313161274272 0.3230586914400413)
(-0.3976845180625503 1.17857475125769 0.2094276867484581)
(13.67474912655132 -10.09297920541335 -42.09508044412126)
(0.006381206666872832 0.006542192961934612 -0.08873383715441641)
(-0.278224083578867 0.02128675467726826 -0.157537325681922)
(-0.3757780481661316 -0.06004305578327439 -0.3605932544531265)
(-1.013661471404171 -0.3359704751000385 -1.074790021471095)
(0.8782763277905055 11.1511595972552 -1.435082039358022)
(2.599026081401638 -45.43649214843894 2.647716569321891)
(-0.05089923901772476 -0.1172452716968583 -0.1099037331780474)
(0.9699270860614458 -4.75698024683377 0.06918721719255672)
(2.734225364550213 9.91574418134959 17.93792319855269)
(0.1256518460697144 0.04214103833945809 -0.02838148495946972)
(-0.2904588906823884 -4.208700396012275 1.882052971441582)
(-0.1384430731259842 -0.07569887357162382 -0.01370741018011924)
(-0.01951548756603455 0.08617161788299912 -0.04409762371302692)
(-0.03048005780567326 -0.007069364263433395 0.03707565687603508)
(0.1255423565467622 0.5356992225737438 0.3698978413293656)
(-2.096148170225343 16.56471515678169 -1.610353773965742)
(0.6496144563896709 0.2953247372171126 -0.7757603590143638)
(-0.6474793465649142 -0.1587443194709757 -22.94488438483356)
(-0.1959217009666405 0.04827805654849794 -0.03736191880872352)
(-0.2226418625827102 -0.0008511131169625236 0.009300941473094279)
(0.3132642049862478 -0.02628897205355213 -0.1142792380789556)
(-11.45674130016044 15.5511495690007 2.097382924865255)
(-1.901074072381498 7.773510019560351 -4.046334776947411)
(0.0296374145341205 0.008888928240154654 -0.025050091121146)
(0.2298271522080185 -10.34611349696629 -0.8705823714368514)
(-0.3609977007832472 -2.952747690822346 -1.859497951179408)
(-2.367178881714828 7.538369197138864 -3.863631600675238)
(0.1105322191090018 0.07832180206117426 0.04609941946131958)
(0.09520683897663235 0.09275155764276431 0.02658262577211314)
(-1.520088009227101 -8.310468327465719 -2.44375159287852)
(0.2041485474660705 -0.3071493748388049 -0.4628077036897858)
(0.09800623964433053 -4.791448018435601 2.384985579872672)
(0.8405158789286902 -0.4829523830677296 -0.4322465004565512)
(-0.5633473540303647 -0.7454041984489193 -0.08780040481836707)
(0.2012869327549113 -0.1523233432905879 -0.01871294752409177)
(-0.2932520632023229 2.171564782085468 -0.3742231409988509)
(3.483132036420543 6.386808983854392 -0.1678841591178108)
(0.00601995340545443 0.00371133752129643 -0.069949924513086)
(-1.027050501507289 2.087755194516843 -1.458826973179545)
(-0.2105470926796848 -0.02884816687410467 -0.1126484384200822)
(-0.02282704900323405 -0.03976640532328346 0.006246436831634002)
(0.01428306470752048 -0.02784636127846418 -0.01782675299117856)
(0.04202338342996022 -0.04181931222458275 -0.09234232258516969)
(1.567518003054229 -0.2978270494850637 -7.523284870792909)
(0.06473697820294326 -0.0880742795351932 -0.006478152461946357)
(0.02702722863771322 -0.02905184967443343 0.08213391289485283)
(-1.739793551385511 0.04393122852287599 -0.321311592012653)
(0.0400669215381255 0.1157870136779627 -0.08706059620852223)
(-0.0007206599251695991 -0.005967071266762773 -0.007857184206363792)
(-0.9772230580027998 -1.065506387881667 -0.4730330174943341)
(0.0005456705468966823 0.0002536716079702683 -0.03585060507001719)
(0.07796291199311356 -0.05523921655168367 -0.02612121192722879)
(0.226629630648033 0.2233966162654639 -0.09307389990269549)
(-0.08825688126438369 -7.276605201532144 -4.074173681322439)
(-0.04846363687924202 0.172593173159531 -0.3161772279817208)
(-2.696565109644618 11.11011645040049 -1.643212351133486)
(2.478807483008676 3.679587018374917 -0.185031699746687)
(-0.4442438736206684 0.337341853633133 0.1065080706096145)
(-3.00168379429986 6.803284185135787 -28.57706386701038)
(0.03840484166073882 0.2093601832387527 -0.1479431847393124)
(-1.325189433347052 5.82534252776076 -0.5099455447932444)
(-1.810386539773958 13.92042279655655 8.605552383306037)
(-0.2080826368656696 -1.197764281551862 -2.453364319644724)
(-0.004738919089486475 0.006464670954589856 0.01321175302669368)
(0.07099600107352141 0.007262249452213796 -0.1457136305922926)
(3.724909042629827 1.672762224471807 -9.610599734601225)
(-0.08333748695512959 0.07773950670222878 0.006837675950595565)
(-0.01285664862672168 0.01132155579172934 -0.03430668403192331)
(0.01929565366456232 0.02420292823824019 -0.03090615304486869)
(1.085653470866734 4.328736984568316 -7.773721069170584)
(0.02979301114390685 -0.03942168964355477 0.0656916545126001)
(-0.0918495596099424 0.001184744834307312 0.05991106780285065)
(-0.0611973198714338 0.001197111065389531 0.07019616585940197)
(0.0686729413412826 0.01179115265271803 -0.07924246188206013)
(0.0163524615592903 0.0256288244924473 0.01769724825885273)
(0.01875387701106312 -0.09955146647058007 0.05329053044693156)
(0.001769225371537922 0.003134484803998109 0.00985551558695546)
(1.338550248560364 -1.291538002989049 -1.972287853390557)
(-1.733367706507341 35.73587023101982 6.404292326797083)
(0.1978203916846263 0.1805695460240233 -8.47617369058519)
(0.05818421354536325 -0.03393485136509287 -0.11738034974911)
(-0.01875506976371855 0.001563984166268632 -0.002462529283799585)
(0.0589123886155639 -0.02001256196710854 -0.05969032044413093)
(0.02395132227197364 -0.07093258656499876 0.01823127935042468)
(-0.04101932024388793 -0.001322893565858541 -5.458678677404797)
(-0.01074316729906688 -0.02321252868230136 -4.94663300089465)
(0.009235029359301133 -0.0265630721865232 0.05746477253704825)
(0.0009761534513442263 -0.005212164294495419 0.04592694328334619)
(-0.3529328492480466 -7.13795030351057 2.829678748094263)
(-0.0407426904453638 0.01144756348187143 0.002771193561114462)
(0.0327266134306835 0.1821829051309798 -0.3740564916926721)
(-0.01983088242240349 0.0344574064159005 -0.04584522174406745)
(-0.02025718451714444 0.0711222786370207 -0.003190669418271216)
(-0.1955290500735462 -0.02866078197473155 -0.1515530394078728)
(-0.04795660457246734 -0.03567473136729293 0.1111291773398629)
(-0.06005984367727182 -0.01456560951222271 -0.1111727200969786)
(0.01014921444985376 -0.0249560231594243 0.0003091507584282943)
(0.009018354471163366 -0.01274719420812122 0.06685514384354752)
(-0.1754504670345456 0.0298943880815031 -0.0175543780928685)
(-0.205334107095356 1.163617452991916 -2.376027510057117)
(0.07064444618027726 0.05387559753629237 -0.001162164310480776)
(-0.02043584632465709 0.002444007199905235 0.01258020142349489)
(0.005093227528790463 0.00201153166873386 0.03061489008163257)
(0.02443519281792335 0.02175105795386443 -5.395917854676462)
(-0.007662472176349159 -0.02686714958577489 -0.02158192453115996)
(-0.008613442759506061 0.001543801566864376 -0.05944099306871645)
(0.01149682838496751 -0.1880169270084299 -0.2247900531731613)
(0.08180793293129768 -0.05008339903093996 -0.04393904843979771)
(-0.1047836851788529 -0.0594245194689261 -0.08667616924510446)
(-0.1616975326951789 -0.05306785136054103 -0.06154863789933314)
(-0.2744406810120881 -0.01285387831763102 0.002663241723193245)
(0.04196092922506003 0.1593869265463758 -0.01930657145614119)
(-0.2073131720964023 -0.5280848089770476 0.3851696232078646)
(-0.02084688931381094 0.0001392494366170361 -0.01603956305982418)
(-0.1520661480488401 0.143607838122831 -0.05970643426463225)
(-0.1294561407367041 -1.314030208505992 0.4553755406059577)
(0.0171935988156349 -0.06285849609734806 0.02175169020143834)
(0.06913306094296515 0.006216967758054819 0.06066138692373878)
(0.152837533417807 0.001071449624125846 -0.1174849638213306)
(0.02181643570151449 0.09075830847692527 0.01927084665587861)
(-0.01755772548853138 -0.0150700009556903 -0.09369085240659759)
(0.01392641429517868 -0.006334218880641979 -0.02120174737760616)
(-0.01134679133705595 -0.08294497767417938 -0.05119977366465802)
(0.1671281078900496 0.04219096691460463 0.1088858493823665)
(-0.003500311147190697 -0.02308140560024784 -0.03268916139228642)
(-0.01019182951545415 0.1366095514986449 -0.009270821193176043)
(0.05996916871704774 0.1044623584597863 -0.1333854181590198)
(0.07993801580757065 -0.04358178432691886 -0.3474384951591935)
(-0.0716065720281575 0.08439941808333724 -4.819103806930795)
(0.02708637304369257 -0.01886765328804998 -0.01861851690016502)
(-0.05392193106643454 0.02272366820401661 0.03798404591350629)
(-0.1843742263304403 -0.1143348208190469 -0.07829045332766296)
(5.860303651149647 13.54889143097227 -9.647962711233143)
(-0.01780178757668757 -0.002284086863532393 0.01160966670165782)
(-0.1850136330339968 -0.03414247563863165 0.05145325623265828)
(-2.656629364609534 -2.498135676517026 -1.568912665589451)
(0.01937065174760486 -0.02170082235102815 -0.01436230948766015)
(0.1352954147287477 0.02929097550557174 0.001569127485819053)
(0.02543905287303075 -0.03875909519673401 -0.01456672802895407)
(2.476003722564107 7.432298594907595 -3.758214362082115)
(0.0959275265557168 -0.1086675438952276 0.01686220171141225)
(0.1770781388159289 -0.03219599759900833 -0.1498161019606173)
(-0.03176086331084226 -0.01133062140914225 0.1019358018240759)
(0.0003665611721965964 0.00380775104861306 -0.004742722800481075)
(-0.003648950788050987 -0.003519737512109163 -0.02163155644849826)
(-0.2070761782776171 -0.03616848364878972 0.004372786889155184)
(-0.3068052717382136 0.2292638781790436 0.2881717193290042)
(0.2137046973333609 -0.1813032862069411 -0.136813032882802)
(4.503044990478013 7.790003304124554 9.84610390067636)
(6.21301222112929 -5.552651837477757 6.121343713237176)
(0.03679792198105219 -0.02282749956034996 -0.05274472978186111)
(0.9849182012439008 -0.9000663500499185 3.178884878261199)
(-0.7607994122435702 0.2790669994400268 0.9723731152803261)
(1.357033213480065 9.124090936968029 -3.445875247394683)
(-0.2062907264633275 -0.8236452576918775 -6.909109810624654)
(0.9455053092956369 0.1423502160765618 -1.141946441591745)
(-0.06622110919015167 4.245502998646494 3.585892554790243)
(1.320169037938874 -1.581206566809573 -3.5894857765995)
(-0.4676025866619759 0.2418572706655144 -0.3213855402186527)
(-1.950851325844934 -5.105255550646976 1.286936497930368)
(0.05624234682154209 0.01290333919865054 0.04420269484969287)
(0.249055755024745 -0.2072737290833421 -0.102654996142193)
(-0.08589520630289182 -0.03847829623688975 -0.05687472222862465)
(0.176784355106792 -0.04065744736438728 0.09787337941267645)
(0.03105552797575555 0.0003009840482786855 0.02349931648056603)
(-0.3320695019565976 -0.4824536885621664 -4.941314901254533)
(0.02492501399462577 -0.06312033740759707 -4.834383603989121)
(0.05802652407612932 -0.01188299609777046 0.0004996088498034242)
(0.7990125707359405 2.080313559797253 0.01146210412015736)
(0.01795176433655779 0.005766749900272761 0.01277942329208031)
(0.6589853439386348 -3.471061815255072 0.652128787766092)
(5.206249366834996 6.822833725714188 3.214337670618774)
(-0.03318512332594474 0.1355895130806806 0.01466554190774264)
(-0.03548163462091202 -0.08432068148298964 0.3820584700737031)
(-0.02417996209952165 -0.03762078303095887 -7.852533494506085)
(1.499516363543302 1.627101482747857 1.581556187014416)
(-0.898888631859319 -1.317481305157547 -0.6150338415749883)
(-0.07998580587258627 -36.28612062263231 -2.468868490856183)
(0.8431195892000234 -30.06978524294204 -4.502742210069037)
(4.570946240199468 0.7865996655434051 0.7315442410011921)
(0.09305575653640177 0.1138132081070804 -0.1935010692451054)
(1.345356304993218 -0.6992417896574463 -0.5850151739828611)
(-1.691248606965308 0.3770627383122638 -1.705609800396182)
(-0.08791880939407894 0.3933708892045785 0.2407272169434196)
(-0.1457446659023927 0.1848827395148487 0.1304351875598108)
(-0.02337935180216236 0.0196942999583509 0.01723458678573529)
(-0.08907532503823941 -0.1276085189829017 -0.02003058240702963)
(0.04209203221275459 0.2077705554286737 0.3886252808651295)
(-3.371571488836677 -21.74567000662389 1.551031648039694)
(4.096464805217727 0.3793281909034045 -35.99021384556946)
(3.382114473385475 -6.642465888167597 -4.26507532141051)
(-0.07159388578157486 0.06948137196915521 0.04085124858710745)
(-0.2118418842946045 -3.80234659419342 -3.444724043486038)
(-0.0002834022265685871 -0.01724040885763469 -0.002592904814698994)
(11.44881630802287 6.329010049815732 2.41320799496175)
(-1.79009474990833 -36.1663312653612 0.06633352776754245)
(-0.06726494153202468 0.0030101703447348 -0.07409032190375742)
(0.1065899388852914 0.04178215708635469 -7.190901451111287)
(2.685604723039965 9.625973097015896 -5.068707394930959)
(-0.01110528946758112 -0.004175689680772813 -0.01634092018295714)
(0.9119348733079931 -3.585605864181655 -0.1660189866019136)
(1.264302758940696 -0.04558160261937516 1.47014476879065)
(-1.718073532722707 -0.006506876477033408 -0.04605108713795009)
(2.505341230045774 0.7646478985777918 -40.42019038850517)
(-3.433797935556989 -6.021304321655629 -2.198638629395976)
(3.39235452902192 -15.4537066803975 -0.06420463234024232)
(4.190976511695191 -9.852045427499773 -31.9262827408459)
(7.03518151580261 38.00366905930574 -2.835566851814549)
(0.09011401516704703 0.1165993001388509 -0.06687957478598902)
(0.07387837210950565 7.351636984012708 -0.06826597889056252)
(0.5560646713871852 0.1146155469665094 -0.1534251179097802)
(-0.05278303214488582 0.005963585787550112 0.08717501607775145)
(-0.3536209821574244 -0.007736366573463403 -0.2036874115626766)
(5.360686001583875 -9.268088677795783 -47.88480976771576)
(-0.09703307833168953 -0.05234087235297806 0.1257222863648961)
(0.001690806502703279 0.0007622039159062228 0.001406600562426571)
(-0.2584536000369031 1.065673333021688 -0.5252049279506172)
(-1.289288651270709 -0.619316100059445 -28.77837858639087)
(0.02298701688651296 -0.03107658513683588 0.02280341759569948)
(0.7421992551212211 0.2973197268477263 -0.1007346496170619)
(0.05349044490067051 1.941116479469742 -0.03196857918975105)
(-0.1555213012536727 -0.1910112230963483 -4.322698644479364)
(1.144498083914026 0.01895115592949338 -0.6743927733890007)
(0.05422607936503972 -0.1646630362314115 -5.417825043780634)
(0.1906817587231942 0.6392977363267253 0.2453885438278704)
(0.06465881824191805 0.03466463119749907 -0.0490053626885068)
(-0.08750643279074173 -3.173408228298244 -0.2250930139921239)
(-2.394125239493059 -1.199922509935436 -0.6935477325962044)
(-0.03234395073000926 -0.003181326680113583 -0.01700481076222373)
(-1.182574994105871 -0.3723110818030858 -0.1390937999637154)
(1.664720051829016 2.076816418988913 -1.763335717803668)
(0.002337942342985875 -0.005114112531239725 -0.0005553210639368256)
(0.01496869800334046 0.00341655307517944 -0.01040400920271899)
(-0.232041789064841 0.003953808770808264 -0.0929404026876771)
(0.5156332127383099 0.254484022612557 0.2084954724930294)
(-0.7509489644595877 -6.291220876801057 -5.635187390361502)
(0.17640882173843 -13.51384774477481 -2.344676096427166)
(-0.2530018115150857 1.271629142704119 -0.0552281174570684)
(-2.252480510430744 -0.1532519296051535 -0.8348322755675854)
(0.02931491193896427 -0.01757373718161025 0.01409389837523814)
(-0.2013217952312621 0.3089006627376657 -0.2959223322156859)
(-0.2332601309708934 1.203497252592907 0.6015317677717062)
(0.1680362286530579 -0.9209242133371711 -0.3994251337910267)
(0.08460764046160037 -0.04612406655542936 -0.06192703789937314)
(0.003321369700397703 0.00358541717627622 -0.02801423085668665)
(0.1346673619124435 -0.1393028809175301 -0.0372475112111795)
(1.690717144847161 -0.9690038073928622 -19.03207115654829)
(-0.03836112311436261 0.003746454187258087 0.02604695541664133)
(-0.1649042017217649 0.004994616844529415 0.08569442561874106)
(-0.004179036033698127 0.002790598172829225 8.598624184773524e-06)
(2.292027281771253 4.688542785444044 -6.01054114250154)
(-2.577618440767107 -6.099603410786898 0.2379189823848932)
(-0.4068841305763485 1.229947433563236 0.9270160100797721)
(0.07553087232847018 0.4658453611779075 -0.3789405594768675)
(0.22816918504338 -0.00145456287403134 -0.0090239941962416)
(-0.5769244127213631 -2.496236345119654 -3.190551250871692)
(1.263037250587636 1.320823569948041 -0.671721597803099)
(1.38781136340512 1.273761507622522 -0.5947943048932449)
(-0.9680378150578078 2.364749781678517 -3.289402167615379)
(-0.01031464856595965 -0.01861030677882411 -0.1091750598125375)
(4.528922757445695 -1.01548351508617 -43.7555417528222)
(0.1090046160427993 0.04662087121434261 -0.03030711711881406)
(0.008868610925618902 -0.001518513783516166 -0.01485203668369498)
(-2.937740623761046 -3.394363884543576 0.5873324773445234)
(-1.698475999304328 -9.117012753949734 -4.343048126028187)
(-0.0328361250091093 0.1776716508827162 0.1133674551902779)
(0.4390853660089774 4.439097735246986 2.872174711177279)
(0.007687023834700574 0.02018245138865499 -0.09310392995943056)
(0.2193392601691581 -0.006377556194616399 0.0238370375734432)
(-0.006168935881255583 0.04255849387125454 0.09446706090515056)
(-0.06038860755926279 -0.07923533678398925 0.06374362595374045)
(-0.006904115237473306 0.004150437673049728 -0.005450680546935203)
(0.3870036344000307 7.042590885722342 3.292945357761834)
(2.478724275529644 0.3417010678450881 -2.172162227470461)
(0.07101497536641171 -0.1009119179191155 0.07321200788642987)
(-0.2921790184834107 5.237714725825112 4.825206179995368)
(0.03388642217376332 0.0997724981752867 -0.006015705273105885)
(0.3961655063878426 0.1926710139472889 -0.2314494039567089)
(0.8960857969926719 -1.35917114213738 -18.42082098839044)
(-3.445776580011077 4.415829012767205 1.500324355214791)
(-0.7987374420156432 3.577990636229605 -0.009394061415526345)
(-0.680250857640453 -5.67895332906172 0.5162773518907723)
(-3.555545021278975 10.7366187085422 1.909656450444092)
(-0.2941859267147715 1.766454552448944 -1.511097730920942)
(0.6335276275871382 -0.08297806079157941 -0.3813782571864756)
(1.4223662539766 -3.64564144028087 -4.38645287103678)
(-0.01927374294806375 -0.05991882454711127 -0.003978812695723069)
(-0.01801819388875628 0.1220424599823096 -0.06172483215998854)
(-0.2905816745942427 -6.866653079265769 1.628242886074815)
(-0.1457131205210791 -0.03585001573959294 -0.1604661298494341)
(-0.04007302412805125 -0.0221661746509011 0.02057106035970668)
(0.8112552164033207 -0.2178889993304769 -0.197749801561089)
(-0.00601089334077741 0.7707168852434565 -0.1251526960317995)
(-0.1043930064850331 -0.04693100859355481 -0.04988734825536769)
(2.73321806958919 -5.38612724383364 -1.28556041617646)
(-1.240223544073723 -0.01879528572526989 -0.1110791077474219)
(0.1555319970059734 0.05375407982704212 -0.006251816744893168)
(-0.0169314559852378 -0.01171099324768771 0.01663517898356782)
(0.7582021529824231 -1.421199409283254 -17.43828710733006)
(-1.626574379999823 -0.8318585891028608 -0.1804816438027668)
(1.441085398323554 28.56878549906468 3.893761631348432)
(-0.2288408420398768 -0.06678554828938309 0.09714527985232832)
(-1.016055754080596 -8.827824374379613 -5.507363291424561)
(0.001883398190198615 -0.1334967786665096 0.1892035166523599)
(0.3534353518016721 0.2777015056487285 0.3993219953834573)
(0.1001789872950586 -0.02132454959968344 4.905069751413715)
(0.2578379531218185 6.227206421889005 7.736447275181222)
(2.071380589546191 2.786674694182676 -22.15806848012478)
(0.2480177672727864 -3.058373487134913 -0.05912000277254192)
(0.004330144481435328 0.03715075011618749 -0.04271236559073043)
(-0.05675091849401916 -0.01858863218107178 -0.03855413226560922)
(-0.07011380878067149 -0.117705827440607 0.05505225294976077)
(-0.01165651645342935 -0.009076306048453144 0.01628344897056291)
(-0.394613770423485 -0.2545677641331915 0.1168935782326331)
(0.006414101887322797 -0.03781342192485573 -5.480220038535133)
(0.008193995270642108 0.01992511132355838 0.01553279968170437)
(-0.3463426698467157 -0.0731388610033199 0.8456959239538011)
(0.004432359845959716 0.1357178972547774 -24.9020868108585)
(-0.01801147178977885 -0.02531346807187296 0.02401807650785371)
(-0.7588660187041202 1.010109127781439 -0.4843558259043638)
(0.6049070162483436 -0.372169395189838 0.1873746811339421)
(-1.031546403111104 -0.07741163416941822 -0.2958868709304143)
(5.519926233991367 10.04096404900582 -3.973104164893154)
(0.1853058828245024 -0.2968415251796855 -0.3941926240025091)
(-0.6680054097797503 0.2143618511356664 -1.659811803524338)
(0.07860370733764548 -0.02101146406379685 -0.03198248203826429)
(0.7967668090230599 0.4420520041455952 0.1472254020421787)
(-0.05203614086189719 -0.02392712287598718 -0.05120089689856989)
(-0.3208081838695647 -0.02294529331723286 0.0172459925798372)
(0.1285103145559847 -0.005149265621892826 -0.09338463208266091)
(-0.03196795567280425 0.03510539331788051 -0.0472815948897324)
(0.9532722619637312 0.2726735734228566 -0.3067258064525429)
(-0.01698808728568312 -0.01363451551433097 0.02711448039745269)
(0.07607855266669282 0.05800204999558048 -0.01652003098676515)
(0.003835357025793839 0.005010084543299678 -0.002855236879586525)
(-0.2300188704324388 -0.1983751862064863 0.5466583483857987)
(-4.380299723635976 61.18651257201076 -10.28992603509829)
(1.029320346642998 -0.2472868931126629 1.505832029102896)
(0.02109746991037022 -0.04358975392427174 -0.04783149321523876)
(-0.4211222466347476 -0.04540887751547386 0.07349274232781666)
(3.624297082196845 63.35577070255637 4.466949662138392)
(0.4781417393406767 0.4336137107822582 -0.009541709523489844)
(0.02348974874387565 0.07820259220918704 -0.03009191473532367)
(0.440414315610346 0.01072457417642814 0.7824278141543557)
(0.00100537135075954 0.0007025306888422348 -4.988386009438291)
(-1.051309880854177 0.8490691344164931 -0.9248732695381328)
(-0.1734992633539155 -2.258473250030803 3.918858691734083)
(0.0971205434756969 0.1127245327530541 -0.03601058764717925)
(0.5710656462475683 -6.378020892367927 -1.36794336348227)
(-0.007212984459413005 -0.01624571731440288 -4.766721995118707)
(0.01909156674864755 -0.01916165403389823 -0.03131686858756473)
(-4.849004043699367 54.83916702241233 6.389584733379264)
(0.5069872735192219 41.32093452593075 -5.673838933330496)
(-0.02680547339855687 -0.08199644271737183 -4.979321396397681)
(0.6063069058974546 6.43678737628678 5.242997266750863)
(-0.0177484595523964 0.0009995923040795034 -0.01920631250747899)
(2.0491179489099 -1.966142641811573 2.756361319074575)
(0.8676303699296076 0.1366715863687029 -0.2299672285240365)
(-9.04039053774713e-05 0.001825334409880762 0.0005507218341928042)
(-0.20367601612339 -25.53496895719934 -1.530313586533323)
(-0.5604269850467004 -0.1921686790807227 -0.140524864003444)
(0.2799221279170652 -45.58772995784507 -4.394970523588465)
(-0.08034732123278113 -0.08472488426186384 0.009956167669676746)
(-0.2124594728575287 -2.586730788672798 1.752840670341431)
(1.647637166873346 -1.897867770911649 1.187468525736691)
(-0.2950558210380993 -0.1557337104477751 0.02037395009295226)
(3.160826219805539 30.41269377116744 -1.341635108536493)
(-0.1150820441692307 -3.558624315962186 0.9644429537197616)
(0.4039843694753256 4.789750916595263 0.8383097495030063)
(0.3973950066902879 -3.319051785286459 0.1738972626076719)
(1.260287245987849 0.2683041746627248 -0.6158778165410614)
(0.04276977141556706 -0.1137275897236061 -0.6644152292501274)
(0.5981742958324404 0.03837697742621035 0.2664154599213618)
(0.2465609245664367 -1.066786810148234 -23.77223211637763)
(-0.2269925704746136 0.4073227627625366 -0.2587315358672133)
(0.1310872240730391 -0.004706642890097952 -0.01406405173031441)
(-0.09059289444368157 0.04897766977493045 0.1981120409452144)
(0.1706060162248512 -0.133249533582169 -0.3641345767869465)
(-5.016486748202817 -1.300064609998398 -1.750687422294174)
(-0.2743503919046569 -0.02836107027584325 0.07020836227834233)
(0.008381439964695453 -0.101328536495735 0.003201816965119772)
(2.480320153175654 16.16250392188609 -8.779281952275689)
(0.006416677824167549 10.83398202835657 3.970124601216516)
(-0.01277536498550966 -0.009298820239898007 0.01195445455155447)
(-0.09663060108763079 1.002110745887256 0.525282117221942)
(-0.9745180466643306 -0.9157449146532177 -2.093289750227558)
(-0.06489074991332562 -1.431935377994923 -0.5890324147357846)
(-1.643638294492554 5.271324897429777 -1.754991332886557)
(0.2007782967925375 -1.928185863731307 -1.315452836907493)
(-1.611630824648935 -0.1583478497012427 -1.795385887099923)
(-0.0173851934440301 0.3205937442832585 -0.04501892346106345)
(-0.7485424057565675 2.542975374492061 -0.4536058130698091)
(-0.0240952912451992 -0.01278259913504478 0.009281104092458132)
(2.859198882599385 -0.7518563955331383 -27.72834771825449)
(4.092432243168594 32.20384400578012 -3.73780105255318)
(-1.429702120375603 -1.274796589514616 -24.64343192428769)
(0.01504525809948936 -0.01695123033194259 -0.04375818299362619)