/*--------------------------------*- C++ -*----------------------------------*\
| =========                 |                                                 |
| \\      /  F ield         | OpenFOAM: The Open Source CFD Toolbox           |
|  \\    /   O peration     | Version:  v1906                                 |
|   \\  /    A nd           | Web:      www.OpenFOAM.com                      |
|    \\/     M anipulation  |                                                 |
\*---------------------------------------------------------------------------*/
FoamFile
{
    version     2.0;
    format      ascii;
    class       volVectorField;
    location    "0.1";
    object      U;
}
// * * * * * * * * * * * * * * * * * * * * * * * * * * * * * * * * * * * * * //

dimensions      [0 1 -1 0 0 0 0];


internalField   nonuniform List<vector> 
8464
(
(4.999956851642148 -0.002089555738188473 0.001144709016641431)
(4.999740655740958 -0.004606621043104497 0.002520761871976742)
(5.00247568851015 -0.004174353229764604 -0.001366784861897754)
(5.00231953777142 -0.003964707376174431 -0.001052307355337412)
(5.001017167078667 -0.001560967434320609 -0.0003235114908956495)
(5.000377073292092 -0.0009639117449510678 -0.0007188528917206104)
(5.00037237241868 -0.00154296924857074 -0.001038914140654149)
(5.003411128015272 -0.001440430538829164 0.001345764871755093)
(5.000344987868579 -0.001826409304813012 -0.000241848381469821)
(5.000374714035235 -0.00121772363501058 -0.0003100680161920421)
(4.997177572667823 -0.00622171425491906 -0.0002691540806467298)
(5.000947555622631 -0.001306010337179329 -0.0009659571143197633)
(4.997625023331111 -5.816095990522487e-05 -5.040817748927376e-05)
(5.000868537272601 -0.001769994355685534 -0.0006157637568742055)
(5.001031954892629 -0.002157647395009714 -0.0003669698694593595)
(5.00103016973389 -0.002089887870076228 -0.0006222841673085515)
(5.004550706851152 -0.002659480491925188 0.001001791692135142)
(5.001112998295446 -0.002006580212986427 -0.0007814454334318546)
(5.000551803950589 0.0002963262834908417 -0.001368727462259711)
(4.999781196366779 -0.002468156681795361 0.0004528107623197953)
(5.000883195410592 -4.895714462642053e-05 -0.001345442851030523)
(5.0006315845506 -9.559268130818041e-06 -0.001126775788228567)
(5.000177745884337 -0.003018331177687531 0.001951274081707335)
(5.000699099272381 -0.0002224981327847487 -0.001274081595559071)
(4.999868663947794 -0.002506968801095579 -0.001922805876989862)
(5.000903202846338 0.0005287824003325512 -0.001705096034630884)
(4.969820409045138 0.02511541237222995 0.007487340257246716)
(5.000411199454681 0.006270478194841884 -0.0009950164866162053)
(5.002344387657493 0.002336104210518366 -0.002416918120849475)
(4.998017855302804 -0.002213178407082742 0.001761297341577618)
(4.998541906181407 -0.006650020994657562 -0.0009665687076095881)
(5.000378599949013 -0.001402559803521123 0.0001489697230550842)
(4.999657701698518 -0.005772708299374459 -0.001431074524287728)
(4.999951393490241 -0.000542398125591496 -0.0009376253069413945)
(5.000343480040506 -0.001002653652547213 -0.0009122265949156108)
(4.994279456495319 -0.0006852087849725014 -0.0001961857106997808)
(4.999999761834306 -0.002937130949518169 -8.256656826648234e-05)
(4.99987360834514 -0.003105762111696217 0.000317904566820911)
(5.002454448593995 -0.0005735282257202669 -0.0009814379649626453)
(4.966714507418233 0.1066813922300963 0.08893835940600978)
(5.004748749095017 -0.0003941553827159003 -0.0050320088454236)
(5.003380247027801 -0.001562933838903151 -0.001815444954138101)
(5.003994256217294 -0.003108727246869639 -0.002060217313029238)
(5.004523107132803 -0.001162818938101563 -0.00494593922863042)
(4.999594453616035 -0.003528375184974493 0.0003252986597333675)
(4.999924854720366 -0.001287407859085815 -5.390952186525551e-06)
(5.000275825278725 -0.001434098863078231 -8.808438426866884e-05)
(5.002176900309915 -0.0007102529879934567 -0.00244433499982327)
(4.999570829083065 -0.003551864957132443 0.00101204254728388)
(4.995943621715333 -0.005061070813421295 0.004959521195372765)
(4.738177104509391 -0.08887403444807078 -0.05108003985836766)
(4.993651149181794 0.005681570215238533 -0.0436650225886553)
(5.000766545933375 -0.002016122777186811 5.646537566325599e-05)
(5.002786419154945 -0.003232164325078508 -0.004656661457726642)
(5.003033771156314 0.00338918576536762 -0.00336071873413167)
(4.998941326988587 -0.003039423429297883 0.0002438169594390958)
(4.999981179958238 -0.0007441253856377528 0.0006198577541496133)
(5.000642633761758 -0.001510529638406358 -0.0004309262960404102)
(5.002268318977813 -0.0002519847434638187 -0.001868209159971901)
(5.000401187657088 -0.001311472062620387 4.030668974288033e-05)
(5.000102681169795 -0.001599162059063389 0.0001266540978772618)
(4.999929241861747 -0.001631845500591973 -0.0001229145171427155)
(4.999836076820264 -0.001798789672911122 8.975049098141527e-05)
(4.999065282062881 -0.004390528562202986 -0.0009936785120411055)
(4.998770925063555 -0.00442135480516442 -0.002882429999141906)
(4.999840087534575 -0.004313968995571671 -0.003032505645093326)
(4.999561201125596 -0.004106568298339526 0.0003619896748722995)
(5.000641875659843 -0.001354086756348148 -0.0007085887966495347)
(5.0006044437815 -0.002068158265334801 -0.0003924795775101929)
(4.998895729147207 -0.0001427831676193433 0.0006530861621209965)
(5.002429522319919 -0.0008753381999060761 0.0003095276914128939)
(4.960620841277084 0.01097745786189176 -0.0004791271567340446)
(5.000244997401504 -0.001288181880478091 2.965653223611685e-06)
(5.010798721750878 -0.00508790000954721 -0.004206243598441598)
(4.999354662424468 -0.001200080187034517 -0.001038064588866679)
(4.997443703438284 -0.01516664898457194 -0.02532910578719525)
(5.003189668791848 -0.002168542384032029 0.002409362645122747)
(5.003477440879587 -0.002396834802117209 0.002088977949394291)
(5.000486395921476 -0.001815179703798992 0.0001830364246914407)
(5.000504590959059 -0.00186612409034249 -0.0004412873801400028)
(5.000260965116563 -0.001245596438782109 -0.0002900549079405042)
(5.001972215755209 -0.001840417240619888 0.002854536335911868)
(5.000017429249658 -0.0005556811506478184 0.0007320010210416528)
(4.999473854006762 -0.005636520079165532 0.0004841051281490442)
(5.000628950354051 -0.002201329611870908 0.0002835798748293007)
(5.002499780745379 0.005150720825794646 -0.01316267817382442)
(4.907198702821987 0.001346678298144775 -0.007200211121533491)
(4.997685308298006 -0.004058010995290614 -0.001754017869103901)
(4.999985076247235 -0.001296592791309822 -0.001054559950201758)
(5.006311246597605 -0.002725221842999788 0.002096853627657276)
(4.998948461588382 -0.001449339188367877 -0.001535773725009396)
(5.001042304376646 -0.0001029160436584331 -0.001674907266183155)
(5.000262480126247 -0.002780281489363586 0.0001156307198745574)
(5.000992011175926 -0.001727781385313604 -0.001079002656415214)
(5.000492272248516 -0.001856476586065315 -0.0002226064310876912)
(4.99818224982177 0.005156672345369699 0.001563891680151034)
(5.000437981057224 -0.001997595566590749 -0.0003584768602335239)
(4.99919108977599 -0.002041266618672708 9.762647848108603e-05)
(4.999643627330099 -0.00141011510199562 -0.000654328082262914)
(4.999505163155716 -0.006701147862748973 0.0009860316376307883)
(5.000291078548321 -0.002123368761162862 0.0001557380648031105)
(5.000309899495596 -0.002617525228160361 -4.193171368036966e-05)
(4.998279448151046 -0.00715926690861705 4.722075309692463e-05)
(4.998415872770558 -0.0002355434483056652 -0.0007792102975100973)
(5.000371347436816 -0.001776750953535266 -0.0003255084472436529)
(5.001066036049581 -0.002440955909790519 -0.001619729051878958)
(5.00053067734583 -0.00197730453089105 8.460791327843127e-05)
(4.99998304063721 -0.002479485587516936 6.709029088292315e-05)
(5.000083505510289 -0.001447411659702128 -0.0002224312881784728)
(5.00156025953305 -0.00201639090464536 -0.001569612200568313)
(5.000719971628096 -0.001742977336263199 -0.0005491301820094415)
(5.000378287724979 -0.001410771495935857 -0.000434331082087123)
(5.019175736274259 0.001774263825283159 0.006216045144455081)
(5.000340830347766 -0.0009508506621610888 -0.0007752555846492718)
(5.000237385588752 -0.002050559192865163 -0.0006574370293844469)
(4.999091181183562 -0.002315560049070192 -0.0008315759629565215)
(4.99983544611163 -0.0005027823084320633 0.0002697402264590539)
(4.999948991233459 -0.001644268362340295 -0.0008907833906680177)
(4.922793801104473 -0.006083367177935901 -0.00593023204555077)
(5.000490174491361 -0.001726452389121918 -0.000109229996256234)
(4.99877680972787 -0.001075406162728296 -0.001379363125971417)
(4.999547071388678 -0.002206737723523973 -0.0001479916789413272)
(4.999262238451537 -0.001493807009255425 0.000234566042632806)
(4.999420542488989 -0.00216412077266281 0.0001873130689367092)
(4.999506408042828 -0.00169932442956442 0.0001096269106197681)
(4.999291851079835 -0.001623472240371421 -0.0003580801865843716)
(5.002540346757768 -0.001116647093009598 -0.00107758162757585)
(5.00065978353543 -0.001446542957864084 -0.001012549181330707)
(4.99925820681624 -0.001589038792057189 -0.0001585457438298509)
(4.998771965504742 -0.001996013885358755 0.0007457794420884477)
(5.000641315043824 -0.002325934878392083 0.0002942995896598752)
(5.00073871654919 -0.001634422481605479 0.001188136711331185)
(4.999821641388529 0.0002158347691987505 0.000497003135944813)
(5.000019374921723 -0.00132025366676704 -0.0001187918986485031)
(4.998917451767496 -0.001604078637349227 -0.0001929372488051711)
(5.000594369389638 -0.001962940661050103 -0.0009803865666129557)
(4.999839455255481 -0.0009136362675877186 -0.0003098000018681625)
(5.009980448213143 0.01086186963009851 0.00918160153796242)
(4.999864596316056 -0.01067048950317271 0.005133010308111678)
(5.087166598919396 0.06090349961094644 0.02038489818274353)
(5.000278300502444 -0.001479983160152711 -0.0001949952246188291)
(5.026401371923033 -0.101568560713194 -0.0179462854620499)
(5.00051485630939 -0.001488783011547454 -0.0004526065609213001)
(5.136090292814928 0.1047885168111131 0.04421885667514976)
(4.968896759441068 0.0008396507162470945 0.001917552517894356)
(4.986728541883385 0.007376835104134856 0.001530516181434621)
(4.999847111545293 -0.0001562065955187893 -0.0003596596476850268)
(4.999746807450513 -0.002369147921543186 0.002578786884138601)
(5.006783483718718 0.0004494731738630356 0.0004551543013590711)
(4.999067361251337 0.005606539815720803 -0.005867217867940686)
(5.00221050456978 0.000946463486119779 -0.002273522812912254)
(4.999473353461512 -0.00176930337976057 -0.001603828888648954)
(4.99857324575448 -0.003387929533467618 0.0001424398650261426)
(5.00077988661689 -0.0009012587218872202 0.0009502631041624544)
(5.001102855264038 -0.00153985957074654 0.000704881179768597)
(4.998498572058467 0.004606718339775202 -0.004978278974035175)
(4.997268313474609 -0.006178613971470182 -0.002885718963921856)
(4.998180651155603 -0.002347186077500364 -0.000891117458952075)
(4.998955899558333 -0.0009825982494881345 -0.002657294340683093)
(4.998496127816638 -0.001716287490875178 0.003396574188559542)
(5.000823651279544 -0.0003226235549257095 -0.001405884252901762)
(4.999944804780218 -0.001240286966899031 6.06550227287316e-05)
(5.002874599571031 -0.0009571815018922793 -0.000288365524020843)
(5.000143681170281 -0.001863290147355232 -0.0008091272344915317)
(4.999569836996805 -0.0005526244580101584 -0.0001504070698436646)
(4.999510032955058 -0.004383627983711078 -0.0003611391320673214)
(4.998913020255636 -0.002836194572920889 0.0003519128535762681)
(5.000099587721896 -0.002936868033012849 0.0002703134858792869)
(5.000458818610263 -0.001537712826462708 -0.0001846278168330675)
(5.001471318738408 -0.00160608707397309 0.001250052429618589)
(4.996542482769154 -0.003596150856229714 0.001294435257307078)
(4.99989802460832 -0.002559916458777055 2.71589105914611e-05)
(5.000848214259619 -0.004088187468432192 -0.0003016007104858531)
(4.999823732331914 -0.001896184940274552 0.0005915416523386739)
(4.999852846355459 -0.002156203922673002 0.0004706276516960478)
(4.998768511706682 -0.005963553115205083 -0.00102567318615771)
(5.000350698019899 -0.001837294391405784 -0.0003325387562533222)
(5.000344303395996 -0.001234654789130508 -1.228357629010643e-05)
(4.999518825012226 -0.002507879835321316 0.0001338421515274606)
(5.00003366326215 -0.001682286786404114 7.229644407869919e-05)
(4.999459550771381 -0.001173817163381284 0.0001350882323536668)
(5.000078508746781 -0.001627405059118876 0.0001101337258243093)
(5.000034162856468 -0.001747824635201384 7.090335399753672e-05)
(4.9999979234985 -0.001919952322541476 0.0005049976422801982)
(5.000957983483803 -0.001040035060488695 -0.0002732501020394582)
(5.00000005307016 -0.001244419028591494 -0.0001317761388160906)
(5.000003232602957 -0.001123607848401071 -0.0004873624945218207)
(5.001013486881438 -0.002025625585745032 -0.0003388078479542979)
(5.000377486750434 -0.001256879818299003 -7.028606182289299e-05)
(5.0000049710447 -0.001682084464035282 -0.0004111581232957385)
(5.016863022885198 0.003891775733708757 0.04084676255807757)
(5.001945175605556 -0.002380090747034423 -0.002338304157105419)
(5.000654940108914 -0.001309331944656336 -0.000547658560498044)
(5.000638564540107 -0.001163056030122799 -0.0004637599090862739)
(5.000140112275223 -0.00147690556045447 -0.001560460473277985)
(5.000947589853541 -0.001484411151386685 -0.0009276897188416696)
(5.000793537604475 -0.0008310970222042348 -0.0008379234829732739)
(4.989862869622864 -0.03694682378130384 0.02335112147547787)
(4.965575148950892 -0.06346587826151383 0.05165193262232997)
(5.000612239232446 -0.00200010403289901 -9.808791025038348e-05)
(5.00021320187866 -0.003021719561688341 0.002739021875960406)
(4.98827229344047 -0.04435174826452713 -0.0008230102875214072)
(4.998819068049974 -0.0181551716150732 -0.0004194120041241991)
(4.985508910524364 0.002612738732167532 -0.0240454699906372)
(4.996958373131723 0.01541190533665784 -0.02372327302170971)
(5.000613639811586 -0.001857973365157312 -0.000225361748217365)
(4.999821021206293 0.003925933099832381 -0.002196189989662351)
(4.999706448997681 -0.001332292105127559 0.0001820505643692697)
(4.998576582389754 0.01376730678455165 -0.03915602603355991)
(5.000489685959083 -0.002871893660641159 -0.0003516702384710722)
(5.000301022320585 -0.001543209218130847 -4.893154351128009e-05)
(5.009185956633071 0.009733154362390195 -0.003255749534724056)
(5.000509145205488 -0.001394908349626112 0.0006711546001875159)
(5.000281190367812 -0.001765317596300622 0.0001194385512550289)
(4.998591148642766 -0.002102305136665641 -0.001620447754366992)
(5.000478891477482 -0.001503102620227198 -0.0007196140794115144)
(5.000394939316028 -0.002058075796229338 -0.0002042813866995417)
(4.973193632271093 0.0054446569789495 0.01192135086059022)
(4.999185635014044 -0.001432514420412882 -0.001480730244084532)
(5.000224558309082 -0.00176906809677263 -0.0007721809662719025)
(4.999625809631178 -0.004478876252849825 -0.0001400650147377975)
(5.000715463122352 -0.003106566717774536 -0.000142230258840577)
(5.000728869956813 -0.002149662407528495 0.00016688056707928)
(5.000613842353683 -0.002059718107368736 -0.0001973605392384418)
(5.000579913942897 -0.003012118412875218 0.000583848612480288)
(4.998873332271437 -0.001491430731129909 -0.001724384909048497)
(4.999418830683129 -0.003045169721307794 -0.001180647924734636)
(4.996043831479128 -0.002395548450199719 0.01048287447537395)
(5.004393508143547 -0.004466396192195802 0.004986026122297331)
(4.99908655056637 -0.002071791130944207 -0.001312919182045404)
(5.005990062768405 -0.002702966031575639 0.0009613320716824486)
(5.000119169594062 -0.004620576979395336 -0.002918206469014244)
(5.00038398790007 -0.00126841112842453 -0.0002006646427667762)
(4.786167887086314 -0.06214368627889246 -0.02534717148705742)
(5.005125769520244 -0.004065974337046964 0.001837725065358904)
(4.884498484418214 0.01080397513645334 -0.01772413467581564)
(4.999245763919291 -0.00287444586293447 0.0009473507235172298)
(5.043922937945015 0.04040602297116071 -0.07143530510373221)
(5.000251600157795 -0.001733606601658038 0.001189041345705914)
(4.978386899643733 0.04993902847285049 0.01568418507525898)
(5.000407444366804 -0.001768584070722758 0.000790704747292842)
(5.040373550517853 0.0323066057728557 -0.06406955158868428)
(4.99507751265794 -0.004234750474686941 -0.0004469254180753735)
(5.021651684027954 0.006541199432048179 -0.0120300438525792)
(4.998858562238769 -0.002975594935239975 -0.0007058420669475285)
(5.008309648496708 0.02939780623573275 5.905185099929305e-05)
(4.999679185475894 -0.003022419231207942 0.001481567242550319)
(4.967718642994622 -0.1869280272232278 0.07777950704581239)
(5.00054430644459 -0.001770846301795029 -0.0001111900593651318)
(4.956551025718739 -0.1428374294364502 0.06835853311062809)
(4.97134697751669 0.1151175164614398 0.09723953652159686)
(4.619685855745137 -0.02517789937300597 -0.06324040151050475)
(4.981468719742996 0.03618737610254586 -0.0004065102543398102)
(4.999817202499597 -0.04165377635860701 -0.0163118020961821)
(4.992166952484748 -0.009235678022684954 0.0006650028437265273)
(4.997729356546913 -0.002641444502332104 -0.004272956155166361)
(4.993848048836727 -0.0162709232745382 -0.0002100942509942233)
(4.997440899042239 0.0005156009463198595 -2.315920829310083e-05)
(5.000114067629013 -0.001173742561860937 -0.0005429698916887494)
(5.000426966238934 -0.00207761266309766 0.0005383465819471989)
(4.978750976353544 0.02005631496610477 -0.001928530926667419)
(4.998705461127223 -0.008792393228186314 0.001302073626599261)
(4.999323913001347 -0.003812345899141797 0.001131183730426194)
(4.999004500004479 -0.004740286944702994 0.001588257832358043)
(5.000293652250322 -0.002291235052482499 0.0002193286931204225)
(5.000339393276262 -0.00171275758422428 0.0002170140216479229)
(4.999222566326686 -0.0008204734623110143 0.0004758282550429604)
(5.000954864241669 -0.002312975690871144 0.0003595657465978247)
(5.000635209170608 -0.002086421283859916 2.147056674753045e-05)
(5.000537081174913 -0.001591507602662901 0.0002638239897415652)
(4.999011709530317 -0.003063621518541407 0.0006503199161692922)
(5.000240730293745 -0.002316194227105385 -0.0003843351806830431)
(5.000906545776949 -0.002392202035368259 -0.0006028524606443971)
(4.99904042622167 -0.005024403670961483 -0.005691112349770167)
(5.003638049069748 -0.003481707947157331 -0.002592685637863971)
(4.997695760912673 -0.01681786475929598 0.003507375430313489)
(5.004157961873116 -0.04510653432378291 0.01042725116804328)
(4.99380048881634 -0.01250400227506675 0.003692423481450696)
(4.999956490319954 -0.001459425974951994 -1.850412415906748e-05)
(5.003531145037706 -0.006373360177118542 -0.002624938429930878)
(5.000372767088489 0.002728378549320981 -0.005888144394812916)
(4.998852703699456 -0.002830484825526285 -0.0008628840887400115)
(5.000357477389904 -0.001539271662155151 0.0001799412056731675)
(4.997985435880502 -0.004668859734552651 0.0003637369185733644)
(5.000048247979298 -0.001470216308337669 -0.000485358913649813)
(5.000416603701412 -0.001016410352575663 -0.0004152146090676493)
(5.000862946496443 -0.001947305360195442 0.0001917238898447241)
(5.00011040038005 -0.002144461237356598 -0.0003565509595257066)
(4.999645560322877 -0.003348926681385594 0.0001611128789174249)
(4.999240519799161 -0.001849196093420122 0.003429308724521664)
(5.001378813939191 -0.0009776478848409671 0.001136380606504666)
(4.999999736801168 -0.001662028841050001 -0.0004721699331997002)
(5.000275835617604 -0.002088422359863578 5.698213316336616e-05)
(4.997175823048218 0.00460505791682568 0.004764816853498617)
(5.000620241839908 -0.001823559241852198 7.932333690117406e-06)
(5.000156531721741 -0.000307124477487605 -0.004088989989617229)
(5.000715776194819 -0.0009698031528688253 -0.0003954478429620466)
(5.000413709081728 -0.002169428177683032 -0.0002876879436785496)
(4.998859581653399 0.002241355280495599 -0.003101573394972818)
(4.958506730538351 -0.008733941939793625 -0.001802530126606403)
(4.998400758277826 -0.04708604779787093 -0.07350366105970378)
(5.000961762187833 -0.005460268479458191 -0.003534726609644096)
(5.000551033205165 -0.0002277672335853119 0.002126999424099735)
(5.000258026060847 -0.001934398466128068 -0.0009075674388788005)
(5.000704994222424 -0.003446408360378787 0.0002615700371804672)
(5.000623739471036 -0.001632980014832075 -0.0005684327293521088)
(5.001390758074462 -0.002748425049687481 -0.00120327684037795)
(4.993580191777643 -0.009037066183817661 0.007406280914695535)
(5.000315063595748 -0.001257225684065214 0.0001078124168207007)
(5.000810942020143 -0.001779588579135482 0.0001423798294768979)
(4.999951021578227 -0.001574082768227672 -0.0001116334584381131)
(5.000326268476347 -0.002011801905758192 0.000208888851428543)
(4.996975948539156 -0.001801827312400726 0.0004972596213416749)
(4.991564934998534 -0.01007560993785146 0.009916216885398507)
(4.995995015858315 -0.01137995822265676 0.01063779634394803)
(4.999124335231294 0.01927721797314707 -0.006131120266224608)
(5.000002186764231 -0.003814005129943113 0.0003119084051123518)
(4.998373194149698 -0.003506067674692992 -0.001242371091355578)
(5.000502815977987 -0.001369279071519592 -0.0009924929785056491)
(5.00017951546324 -0.001299766762843829 4.760118589294289e-06)
(4.99627819530037 -0.009872906545638188 0.002774799903638516)
(5.000203955180428 -0.00198327234536709 -0.0001084562175764729)
(4.991042064897432 -0.022573051903179 -0.01089801667953173)
(4.988912745633342 -0.01383306914919678 0.002205696034599357)
(4.989398342744154 -0.010271781339876 -5.912042534905702e-05)
(5.000738359695924 -0.0007159686035644145 -0.001082004727149965)
(5.000510957155716 -0.00151611855315044 9.81545147640338e-05)
(4.99750051680795 -0.003295669461745426 -0.001326660954003752)
(5.000484728314774 -0.001357902265969506 -0.0002820072560368639)
(5.000867649498673 -0.001563391510776363 -0.0003330884827595387)
(4.99906906383472 -0.004020622869746077 -0.0008584323020850429)
(5.000027537006644 -0.000677272206857292 -0.001960341342805164)
(5.001900428826391 -0.02259630424106384 -0.004493267129915365)
(4.999404324018725 -0.001639097640455343 -0.000651067953441117)
(5.001831634862116 -0.0005538657025269898 -0.002235080256465583)
(4.992539922375055 -0.007281818195578416 -0.0005777811741715604)
(5.001268674775932 -0.004498596779862174 0.001787138307386444)
(5.000369811492265 -0.001578048095021721 -0.0001966799297582248)
(5.000096720679653 -0.002560045265704997 6.729966039242853e-05)
(5.000808091525215 -0.001717447666962324 -0.0003361698697142293)
(4.992148203945434 -0.05640352559439987 0.02021036228225325)
(5.000492632927984 -0.00574033847867093 0.001690810872302846)
(5.045696200747411 -0.01560654284300519 -0.02916745774262324)
(5.000604078125618 -0.00256083742231709 3.781842777943226e-05)
(5.000250538551303 -0.001086971610142857 -0.0009953418846415708)
(5.003797232712346 -0.01864413740915906 -0.007548405067557201)
(5.000384083137142 -0.002165763963359694 -0.0003145063835056613)
(5.000786053487281 -0.001878979330037081 0.0001160213304015118)
(5.000652207327229 -0.001107882897043406 0.0002236083692989826)
(4.996470245467894 -0.000877868231246327 -0.0004879722299716194)
(5.000571296773701 -0.001086438275422244 -0.0001654676861544329)
(5.000360010888024 -0.001757674619194031 -0.0004419254970528278)
(4.999359226285646 -0.004043948584183743 0.0001335957214597224)
(5.000287302126673 -0.002258673227478702 8.161282393942308e-05)
(5.031708509905275 -0.02093422174080879 -0.001463530923293986)
(5.011511491290727 -0.01769016390928662 -0.002835419902196712)
(5.000644285503386 -0.001560998717587314 -0.0002753719814204885)
(5.000415333634799 -0.001224189921677486 -0.0006204411834413052)
(5.000348144903401 -0.001521185105368191 6.258559069345759e-05)
(5.00079936493102 -0.002188505281717575 0.0004690725958281217)
(5.000554359913743 -0.001701747293765991 5.567332239899606e-05)
(5.000399632155247 -0.001160558899242659 -4.932845320159834e-05)
(5.000290501233812 -0.002341248691225292 -7.849823011037186e-05)
(4.999824854719527 -0.002923234437452211 -0.000511472550368906)
(5.000444908592755 -0.001797082617562391 2.081113504224637e-05)
(5.000831206166527 -0.002304524532374126 -0.0003877490413910867)
(5.000101665455088 -0.002953199823421433 0.0007230702521830082)
(4.999731777219062 -0.001851718361141761 0.0003376734144251305)
(4.99975423679748 -0.000539710779525341 0.0005676762619125163)
(5.000447353266899 -0.001586248577791206 0.0001182095331361472)
(5.00028165202174 -0.00172530471011896 -0.0004154757771476968)
(4.998314238350232 -0.005047183643221116 -0.002055090308746188)
(4.997514310561926 -0.0007219133252539215 0.0006280296200935908)
(5.000658333597584 -0.00153780632461498 0.0003692298611196517)
(4.999349984841362 -0.006364207756484239 0.001281709596242687)
(5.00006965319746 -0.001211566797870644 -8.662984371621926e-06)
(4.999790224397838 -0.001298740235996143 -0.0001247935385178406)
(4.999568090098818 -0.001332196349265897 7.382597811601537e-05)
(5.00028304413626 -0.001598304912779709 -0.0004636539019496024)
(4.999999497208059 -0.001708948382453032 -0.0001336332828173118)
(5.000253515212545 -0.001227479453530619 -3.714391537835954e-05)
(5.00086995287459 -0.001946659804455811 -2.169671439746241e-05)
(5.000329980242721 -0.001828137096597381 -9.630932440222301e-05)
(5.000078751495725 -0.003371432042917 0.0001354952154233777)
(5.000621926654997 -0.002200945701171769 -0.0001471370251234732)
(5.000696967921826 -0.001645185632862101 0.0003590151166326314)
(5.000312383192773 -0.001402219084599876 -0.0002441560751752725)
(5.000667441192593 -0.00161248158443677 0.0006972739219701089)
(5.001488538445746 -0.001301706144991882 -0.0002745513668800982)
(5.021398948434158 0.01954661533524138 -0.01597468589266724)
(5.00006856531683 -0.001415811312407526 -0.0002954441751965354)
(5.000688030980388 -0.001181453997252134 -0.0007942186696346073)
(5.000565779871192 -0.001699202838617951 -0.00031530449293836)
(4.999075181072835 -0.003476210318501592 -0.0004796335581894329)
(5.000333347497732 -0.001620048501908758 2.100036946687439e-05)
(5.000272895609164 -0.002404654280623824 -9.911162921480268e-07)
(5.000100335894674 -0.0004482445635519644 0.0006312216306570655)
(5.000541423701357 -0.002097870059947896 -9.216057894745015e-05)
(5.002009453429901 -0.001852049035691224 -0.0003303673864491176)
(4.9993530627305 -0.002065319452507628 6.520215868618183e-06)
(4.998192399025874 -0.0005866855158281694 0.0004356170940236933)
(5.000318891138286 -0.002592932109822726 -0.0001311334384064855)
(5.000350992627128 -0.00147961895239786 -1.939926750690684e-05)
(5.000420250753665 -0.00143258156788587 -0.001005889933008485)
(5.000484342220805 -0.00148708035626162 -0.0001163608892102916)
(5.000417030525805 -0.001237297327271507 -0.0001121654272683417)
(5.000311361032858 -0.001168979081412556 -0.000142073805146475)
(5.00051139600749 -0.001293011634429345 3.346429546740008e-05)
(5.000056831793438 -0.003057917086461473 -0.001736480077600041)
(5.000819072708185 -0.008703282807847825 0.00737018775759546)
(5.000808631338615 -0.001500075114730743 0.000213620527909215)
(4.999307978805899 -0.001768340595306391 -0.0009099651026750897)
(5.000328782090328 -0.001696998687123116 1.505400380611086e-05)
(5.000265625220309 -0.001318282804234519 -4.637748447724622e-06)
(5.000344662549758 -0.001161642816885402 -0.000119275268416991)
(5.000327169958336 -0.001830892536359698 -4.529355269562289e-05)
(5.000255784482331 -0.0009906305535227647 -0.0003473339282177672)
(4.998927032951198 -0.002503021696102714 -0.0008587143885544426)
(5.000386741675209 -0.001264831886426396 -0.000721933036102527)
(4.999966054853458 -0.002180029206042079 -0.0002658551247346694)
(5.0002352461255 -0.001634411954841867 9.733114595443512e-05)
(5.000398923262068 -0.001555298946037458 5.171401607075248e-05)
(4.999166004070787 -0.0008549050280964914 0.0008044201733039938)
(5.00020915601777 -0.001609624070931591 0.0002921646670713746)
(5.000286898069973 -0.001942027648280261 -4.184797194178986e-05)
(4.998289017561186 -0.001418238617805025 -0.0006372257132877071)
(5.000018111439068 -0.001623083572492123 2.366128289421813e-05)
(5.000402171257899 -0.002983883960687279 -8.463206137284284e-05)
(5.000123823299554 -0.003164022488904633 -0.0004227684234704663)
(5.00031280314179 -0.00171943587540463 -0.0002865185601926877)
(4.998512789235114 -0.001091468320712243 -0.0006319933628642865)
(5.000190907240416 -0.001452446421272387 -5.591067308425645e-05)
(5.000126762351077 -0.0009907591111498017 0.0007696353121326016)
(4.998204815777361 -0.001834429029269182 -0.0007142851786025319)
(4.998615969838349 -0.002430401491447007 -0.001423137873796775)
(5.000399494249947 -0.001781152569938564 -0.000613863438725289)
(4.99893143934766 -0.005126360184623886 -0.002885339402385117)
(4.998863164436454 -0.003519406982437126 -0.0003274805425325281)
(5.000081082605024 -0.00122319632096829 4.823312746027359e-05)
(5.000806981554939 -0.001921845645548142 -1.052303665313121e-05)
(4.998984893016206 -0.003057455266370118 -0.0008703232669869296)
(4.997158199383431 -0.00473664979715548 -0.0007192200575991648)
(5.00030389121141 -0.001877787813317761 -0.0004456753785758827)
(4.998011035990086 -0.003505427610090654 -0.001105729631545327)
(4.999273423677638 -0.004524796256598814 0.0006837291361757337)
(4.999953626116262 -0.001437049852958658 -0.0001278598997436406)
(4.998215321625477 -0.005705796595981456 -0.0004780083770510471)
(5.000521474829665 -0.001244746035348036 0.0001096748846771018)
(4.996751701072446 -0.01005188550221521 0.0004405939147426181)
(5.00062880469143 -0.001820323770225874 0.0004707427671097586)
(5.000300631302157 -0.002660716489836581 0.0004536224229542742)
(5.000246923601604 -0.001684690912642147 -0.000115703846004102)
(4.999989836874329 -0.00150619387352457 0.0003806902414676088)
(5.001807949148481 -0.003625729244058206 0.003879702477454455)
(5.000462266790106 -0.0004425900859765919 0.0003996197757829615)
(5.000339200830113 -0.001239266971286662 -0.0003330003080628774)
(5.002290841158717 -0.001481612436420112 -0.002631289791175823)