/*--------------------------------*- C++ -*----------------------------------*\
| =========                 |                                                 |
| \\      /  F ield         | OpenFOAM: The Open Source CFD Toolbox           |
|  \\    /   O peration     | Version:  v1906                                 |
|   \\  /    A nd           | Web:      www.OpenFOAM.com                      |
|    \\/     M anipulation  |                                                 |
\*---------------------------------------------------------------------------*/
FoamFile
{
    version     2.0;
    format      ascii;
    class       volVectorField;
    location    "0.1";
    object      vorticity;
}
// * * * * * * * * * * * * * * * * * * * * * * * * * * * * * * * * * * * * * //

dimensions      [0 0 -1 0 0 0 0];


internalField   nonuniform List<vector> 
8464
(
(-0.001141248633306577 0.0004304133013731316 7.121901939614785e-05)
(0.005780148345757406 0.0007057768516364263 0.001381657879961427)
(0.01620178111194761 0.001501993620960006 -0.003742267028672938)
(0.002177521019231766 0.003681746538121771 -0.00213440217410668)
(-0.00826799911117398 -0.00405483358948703 0.0009546659622734111)
(-0.001147515283223145 -0.001740035841494291 -0.004326834058709386)
(-0.005379176262177232 -0.003977677199560737 0.001956502209673007)
(-0.0004335162586906335 0.003428589386467784 -0.01088793433895848)
(-0.0005269328195795981 9.55138829192648e-05 -0.002917818142656084)
(0.001851887448257042 0.001378473635974096 0.001744938453265462)
(0.00461140311584333 -0.001228661542761376 -0.003882180620683888)
(-0.006414790822176658 0.001334351205129051 -0.001403392681141063)
(4.509773782163626e-05 0.0005594352018869999 -3.376988912485102)
(0.0002999662073776344 -0.001119849022644832 -0.004453557087358951)
(-0.0007005240381202813 -0.0008675711780739208 0.001855700269402602)
(0.004220605655598935 -0.001999422532252494 0.001026391856199028)
(0.01080440996240115 0.01012059533838857 0.00531217477480251)
(0.002977211552464615 -0.001651570777817707 0.0004545990202798099)
(-0.001284017579307457 -3.560984339811245e-05 -0.001601352507121738)
(-0.0001584464995897313 0.001136465362871034 0.00113840956567546)
(0.005861743341028133 -0.001496444318225225 0.002382804142345834)
(0.002409163561562476 0.002007064142704189 0.001209130344378557)
(-0.0008998953860169365 0.002029228912758022 0.003091185827046262)
(0.0001578700402916416 -0.001871380346997257 0.0002546633232385206)
(-0.001392704933477771 0.001244329272888615 0.0004229992580669499)
(-5.939970316336989e-05 0.001871017112539091 -0.001456187132538772)
(0.03751746071068938 -0.06192262898358366 -15.58492772649552)
(-0.00458882477339444 -0.007895263456492163 -0.005510928131906837)
(-0.03103737316659533 -0.001658395406945174 -0.003903469379478174)
(-0.00659736967104161 0.004902202575856077 0.009432148627487169)
(0.05135088483600486 -0.006159721564006078 0.0011388371812583)
(-0.0008604337942751472 -0.0002563013441884841 0.0001378807080129808)
(0.009288376930805373 0.001354243541986919 0.0008045847870438838)
(-0.0008473873121158156 0.0001267440063301502 -0.0001502632623455229)
(-0.002961587286102269 0.01012120282062857 0.002065754842519775)
(3.283162699517769e-05 -0.0003406876909647589 -0.0007399595637716434)
(0.002029735538255535 -0.002222845780373947 -0.001808366752092763)
(-0.004756301619363107 -0.004308929221685406 -0.0007339648224889798)
(-0.009614477568210036 0.001340770054635684 -0.0004795639064220096)
(0.3163468186625524 -0.006975158311873092 -0.1022831583411407)
(-0.03750997378411724 -0.0002445881311264938 -0.01035432883827031)
(0.009846104292309268 -0.002353861743369517 0.001551142915941263)
(0.005034378392341211 -0.005346380293125715 -0.003172641964422234)
(0.01067252267474237 -0.003435432376697889 -0.003920077912380958)
(-0.006148981956658083 0.0007848116466130446 -0.001711012968618061)
(-0.0003961028701871474 0.0001714996701125764 -0.0008626177700238767)
(-0.0001302435851941584 0.0009289721243768797 -0.001249870852871371)
(0.0004217076404389262 -0.0005689383117093421 -0.002616131418384935)
(0.005892214693240746 0.003735832426665316 -0.004125568540573175)
(-0.03229696240990854 0.02653612067185145 0.02146919630643615)
(-0.04992913359168393 -0.4581961981964533 -21.24539368171552)
(0.1103255342488685 0.0907962129213654 0.0834533260362002)
(0.0003278581237619921 -0.002001924643932788 0.0004239071045889525)
(-0.02100375843888624 -0.001304673341194162 0.002318382029131307)
(-0.02170212232672738 -0.00579241775965527 -0.01896888181103625)
(0.008672671269388681 0.001989421324108292 -0.004584807462443235)
(-0.002568686899922191 -0.001203198057167906 -0.000883980350683538)
(-0.0002227772598610543 0.00165534490554421 -0.001562924631855958)
(0.001291069506189672 0.006454608153232821 9.021266269575341e-05)
(3.755248097382364e-05 0.002022241752656037 -0.0005233181467486017)
(-0.0006022600855316514 -0.0008042012768705116 0.0002756295639964648)
(0.003422811041977836 -0.0002150203964173156 -0.0004137924052579595)
(-3.057342419934307e-05 0.0006831608256197394 0.0005736855982282164)
(-0.002667756852722789 -0.0001661539397490963 0.004656994721748596)
(-0.001042588789447212 0.002228991311902742 -0.002178561226170443)
(-0.01062937126598464 -0.006307642048715607 -0.03160905011906665)
(0.003674229196166423 0.001579452106152612 -0.002247669720892327)
(0.0001317436083167315 -0.0001243918850582036 -0.002116621325069519)
(-0.0001838076436183201 -0.0001168220128930365 0.003191096246495025)
(0.0001941745523781925 -0.0002194995236663318 0.0005804446452682577)
(-0.07985280025293097 0.001469718716741078 0.0004615294971217557)
(-0.1347915303428105 0.04416748898350494 -1.309679046297721)
(0.0005921212012658216 4.754216875709718e-05 -3.24257089341958e-05)
(0.06136151707825818 0.01556751715791695 0.04969472811501958)
(3.377437072068319e-05 -0.00178155286180277 -0.0003328979191469606)
(0.04327320401472578 -0.07078820831934252 0.04942053636607114)
(-0.0207919838421607 -0.0007845665359788058 0.009211904717006588)
(0.0148358414325655 0.001979410229840502 -0.001975905414024703)
(0.0007121261754347904 -0.0001740998471637049 0.000287637985636924)
(-0.0008311770119264199 -0.002021227625366284 0.002161754381966644)
(2.909141630013973e-05 -0.0002999877086235681 -0.0005948601590209865)
(-0.009531736375651049 0.02072750687030376 0.01894842185793071)
(-0.0001098083133425149 -0.001118227684492899 0.001153185653823484)
(0.002196951934999503 0.003171850755839249 0.005597435212665479)
(0.002492901373384452 -0.0001338709008915994 -0.0003756334239169747)
(-0.08494029936080345 0.1284868393885446 -0.05232089606434576)
(-0.02067941355847373 0.05295226263970575 -16.90652215064571)
(0.005836727806966946 -0.00535917635856072 0.01747397432782471)
(-0.0005163522742663035 0.0008478329338139085 -0.0005819869647405679)
(0.03922703924325853 -0.0186815054022508 0.09534548418982806)
(0.0009787815540037621 -0.003945518583991248 -0.001756512580454114)
(0.00121197148356881 -0.001354988553202801 0.0003676282810053178)
(0.001555918203894266 -0.0008581562119281111 -0.0001096128464967919)
(0.002435448241350929 0.001132667666923957 0.0002716003925243948)
(0.0008518558048717405 0.002321829265559183 0.003391400985240152)
(0.1637907619235718 0.02758201870804415 -0.04334844606478765)
(-0.001627479115235473 0.000798521401210991 0.002054187682522212)
(0.0009606180980426849 0.002127722705985591 0.003039089029114158)
(-8.344719135369044e-05 0.001838592694442831 -0.001490383186911709)
(-0.01817222393972176 0.000570501955803028 -0.01227067810441524)
(0.0001177504642736557 0.001494461886982188 0.002087354122852649)
(-0.002817120494566948 0.000984902851677148 8.366468522202474e-06)
(-0.004056385987167267 -0.007790709363333936 0.004413322692218759)
(-0.007058886855607202 0.0005335410405277741 -0.003092425605573779)
(0.0002732345706148141 0.0005412840086541585 0.0008164379762324423)
(0.00528989190394154 -0.003141370970564045 0.001963474476972251)
(-0.002395469041863917 -0.0001635875266684536 -0.0005668479570676934)
(0.001854016631149413 0.0007275147319308615 -0.0007647651053431298)
(0.0005440087086730708 0.0004546137766067064 -0.0002707838220408783)
(0.004076490625752008 -0.0007691531409759595 -0.0008893272665588111)
(0.0002539216125826636 0.001439095519198641 -0.0003755888714583353)
(0.0008780740321120595 8.864560327260964e-06 0.001054677046972625)
(0.03188656907139423 -0.1569331833945811 -0.3241558330356719)
(-0.00118916589889008 0.0006324240636446331 -0.000760374498709807)
(0.001047170352326404 -0.0007760859062311196 0.0002442602357103919)
(0.004771912060729848 -0.0005665175064950177 -9.66161338113627e-05)
(1.607259919538101e-05 9.17505649130292e-06 -0.001723378016322385)
(-0.002406298006650145 0.0002906510977766211 0.0001965997612937362)
(-0.007285934203697475 0.04148082759505986 -14.93638403552978)
(0.001766144157327814 -1.216453494532057e-07 0.0005364131801307384)
(0.0003903664478998616 0.01311212568743377 0.004768674363457131)
(0.002918863400270282 0.003487532257763154 -0.003281352036734481)
(-0.001302955762576028 0.001307705187764237 5.673714981435391e-05)
(0.001130177319317901 -0.003294098789459613 0.00277195457655335)
(0.0004539991972580949 -0.00425913752638901 -0.001186095361985503)
(0.003740672470544464 0.00148003186876217 0.0001851916648613603)
(0.003784369171895623 -0.002969785201842708 -0.003596761100570655)
(-0.001494451031971202 0.002403792492285228 0.002364525830476726)
(0.002819522293747711 0.0006342390864460807 0.0002440069153107735)
(0.02249389590623692 0.005963810646025381 0.0004171042870110839)
(-4.37194283582935e-06 -0.0009231916169409515 0.0009881073748516452)
(0.001610162149572811 0.001101761592202093 -0.0006215489294100587)
(9.339797163789148e-05 -0.001284499364911199 -0.003091370938615438)
(-0.001571940388064848 -0.001583056888230506 -0.001448215445725443)
(-0.02618710852345259 0.002218946931689895 0.03812732303215381)
(-0.0009814801283034333 -0.001190987328678825 -0.0003925388159975792)
(0.0002708066005469595 0.003087845941515965 -0.001154312661442215)
(0.08769410311427012 -0.2254446998133559 0.1801879076052082)
(0.003326626379884846 -0.03972994584777596 0.04447745628307136)
(3.625817300539777 -1.028008650436386 -1.884937108430748)
(0.001502951141344457 -0.0002986452454288411 -0.0002695473707437)
(-0.3697901974620252 -0.07998616128761316 0.4392657679508493)
(0.000949891811557379 -0.00212200061249225 0.0002668371163191815)
(-0.2018768771344887 -0.0150575387383041 0.03330773419892086)
(-0.1285054986586259 -0.1121855677449527 -0.06019986569772919)
(-0.04778389650244937 -0.01964740305356007 -0.05462205598697117)
(-0.005826281420765059 -0.004612674093699864 -0.002136014998928311)
(0.005779211005376126 0.009684252477566692 0.01946389225049614)
(-0.003548133899795997 0.01227885569809587 0.03441209747334097)
(-0.02140240622949701 0.001201484712020303 -0.003384131615865271)
(-0.02242773024943084 0.007211971528013327 0.00301493750627822)
(-0.0006342897915712084 0.0003881284615246239 -0.0003744263945981219)
(0.00379624633855253 -0.005090294588199639 0.002904367529121849)
(0.001982566187488649 0.002741980193596608 -0.0003934988636970175)
(-0.0001042668698557053 -0.0001617641453366846 -0.0003830157915680198)
(0.01081622681647698 0.01324676196772819 0.0189589035342279)
(-0.004929388904716109 -0.01107064348651793 0.01703871280677661)
(0.00801974578487789 -0.006835758795836107 -0.01437849902078656)
(0.02017520325883916 -0.0002173624136156643 -0.004069790973551032)
(0.003873247370423028 0.001886678319611731 0.003209834415023728)
(0.0004721643623986845 -0.0001099553569160156 -0.0002677223530709075)
(-0.000560708530809644 -0.0004817785401166073 -0.0004814163461914525)
(0.006428713314614778 0.0007457054367392421 0.003531883171253352)
(-3.34312939418149e-05 0.002017247104855443 -0.0005236214541189942)
(-0.001546431204659337 6.730303105047499e-05 -3.352236934100813e-05)
(-0.01023758902853261 -0.003145214294217303 0.004605198294277824)
(0.0001681376416638804 0.0009398649194399518 -0.0001523276872372025)
(-0.00146682378356284 0.0003707994292186454 -0.001170338647533423)
(-0.0006587306046465273 -0.0008498357010686562 -0.0005904509190473053)
(0.006180589597358108 0.02025973239989621 -0.03417168962751649)
(-0.006325151626726535 0.005057636059260487 0.004265900320756147)
(-3.087474095488159e-05 0.0002789779640598902 -0.0007614231782785367)
(0.03340958730580183 0.009288540378585354 -0.0005768708839678609)
(-0.0007482038801067546 -0.0004214192485793465 -0.0003237556818749604)
(-0.0004362833382952921 -0.0009836368027252721 -0.0005019738499654437)
(-0.001631706542479019 0.001549129742239687 -0.0002059487968439991)
(0.006990014698563418 0.0004755533598667413 -0.0004536547838967532)
(-0.002130932975830139 0.000752533128590729 -0.001088341658589972)
(0.0009580201760903599 0.0006023367778254619 -0.0006602437313820056)
(-0.002220088555504927 0.0008038339339421904 0.0002602259990985158)
(0.0006791249789663991 -0.0005540959828448928 -0.000453937367201086)
(-0.0005402144093406188 2.691696634833337e-05 -0.000183360608066101)
(-0.0004294503308792504 0.0002229487029835986 -0.0006445907212016882)
(-0.0006597930960117733 0.0005678979911042919 0.0003402846298709099)
(0.000431415095917664 0.002041572956324918 6.911512209776659e-05)
(-0.0004087135898574961 0.0002464459529557072 0.001062069476178331)
(-8.816367310856567e-07 0.0001806460879107505 -0.0001139505303375623)
(0.0002753702291048335 -0.001341660194988514 -0.002965374904626242)
(-0.0001931156943337984 -0.0005350007931564745 -0.0006352372807596771)
(0.001002790318363251 -0.000280448686802532 -0.0001208637340340731)
(0.2460893530784491 -0.03078794697126339 0.05386959930634104)
(0.0002452239910206245 -0.003440425997298607 0.001652444934359404)
(0.0002894865201489509 0.0004925745541896285 -0.001388899152239217)
(0.0004738676820003828 0.0005057406114510603 -0.0007315070671412042)
(0.0002936176162657036 0.0009775829600123767 0.0006296740948569746)
(-0.001344941437055627 0.005662911306392633 -0.001278437413945781)
(-9.141080798729523e-06 0.0002689767195575016 -0.0005787519837964809)
(-0.1692643534798441 -0.2282916541569627 -0.1684506822850538)
(-0.4694279949680293 0.131927559009475 0.1099300267332982)
(-0.001060130690331083 -0.002852508633224638 -0.001146410359727456)
(-0.003012823449911519 -0.002770464548463449 0.002605186256040806)
(-0.1039670151863961 0.053977548623411 0.2131191692649965)
(-0.1532778283646747 -0.08059944407341593 -0.06512233375560751)
(0.2733399865730093 0.09293288362754663 0.1610856398000888)
(0.2660868646764044 -0.138953606171268 0.03474848781293948)
(0.0003326050143172093 0.0007774116079331478 0.0001521222698718263)
(-0.005861621708706915 -0.004674857261627136 -0.03354321813628065)
(0.0005207296069266159 -0.001116217512651718 -0.0003894595576643081)
(-0.07612375177269314 -0.4042717975975509 0.009340001953828898)
(-0.00227741661113784 -0.0001141823308455732 -7.726859528873049e-05)
(0.002854387857511402 0.001068983538087924 0.001157599939726318)
(0.1215898936602281 -0.08270122028186376 -0.05812693529394239)
(0.000941258506176591 0.001839378472931672 0.0009602087558024154)
(-0.000322952294284953 0.0006904389800363089 0.0003979898737675616)
(-0.001900532693066584 0.001544247776559201 -0.003034114737048491)
(0.0003766505715299662 0.0005021070792551867 -0.0007986030302338308)
(-0.0004547435379588467 0.0005286648671430157 0.0006579166717182526)
(-0.1002846065956641 0.3930115493087244 -0.3212351882815024)
(0.004314012263243015 0.003341616560354276 -0.001328986905851818)
(0.001177294845468406 -0.002358049091162604 -0.001507978847390505)
(-0.003302124444287954 -0.001369069105926601 0.002397560980267588)
(-0.00438444680291337 -0.0006597151329084039 -0.002525980725922884)
(0.003760721844024882 0.0005194666756342279 -0.001143045015771303)
(0.001341797150920182 -0.0007542309192568872 -0.0001443752073529319)
(0.0007891623826329682 0.0006180344705566237 -0.00218983702369389)
(-0.0005530976545185949 0.001888167979021397 0.00168573323577481)
(0.003883630397528579 0.001827951025595284 -0.0006596340139570973)
(-0.1246736870506606 0.2425349616372256 -0.2019739851154323)
(-0.01694723002166736 0.03645109050613233 0.03353531738803969)
(0.0003074073419037163 0.0001316800646383216 0.0009522053270940274)
(0.0181726668684538 0.01267363038946555 0.01602195032915625)
(0.06598974448532957 0.02487829084497266 -0.026216566434436)
(0.002581144052388514 2.528413630373781e-05 -0.00347324371176164)
(-0.04189940667769737 0.3181866387024507 -19.62091242630818)
(-0.0008931219593614863 -0.007858885299833997 0.01103155113471268)
(0.04026062884504375 0.1608494463156802 -1.709423970961178)
(0.0008165387805998355 -0.000808617468138066 -0.001949305142758104)
(-0.1990911052381292 -0.3383730729559028 -0.4152773019924798)
(0.0007006728708116236 0.0004379089893767525 -0.00220215814611353)
(-0.02754132387291854 -0.1181914933734621 0.004015996197247684)
(-0.0005172901916683819 -0.0006227999077737184 -0.0008377789431392969)
(-4.037894199153452 0.7891634774579659 -0.6252495033836023)
(-0.0006585938229535879 -0.007773694621389988 -0.006267637369458902)
(0.02964015011577523 0.07216731594016243 -0.1479078832510022)
(0.0008814720326754211 0.0003633987737185998 -4.31048166080444e-05)
(-0.4063017443341831 0.07441040711731726 -0.0973939762439113)
(0.000484785299386156 0.0002026740015420326 0.001789770939151853)
(-0.5246887394005815 -1.994113241055746 -4.021388154309748)
(0.0008209107595756826 0.001041747833090512 4.014970329014179e-05)
(0.566223240101099 -0.09369931185659008 0.4428197819592546)
(-0.3434485224225944 -0.8026900064635177 -1.682045358344533)
(1.875328841103545 2.343167655939071 -50.29927117489991)
(-1.828685822452258 -1.030055700651991 -1.47876828649002)
(-0.00955640838189678 -0.05413173633024645 0.2580938862706884)
(0.04760528903801559 0.009080390562065126 -0.001586428423198604)
(-0.03771012250081762 -0.006702060824125625 0.01550129331688631)
(-0.07756273835694827 0.04128976051641665 -0.06608636027987565)
(0.01234692305486179 0.001183914226413594 0.006457447546821505)
(-0.0002894620726601103 0.0004578452263756026 -0.0002310214146682256)
(-0.0003862158452649297 0.001154013589576016 0.000863720322389759)
(-0.2900005696978696 0.5459511539884472 -2.231419237708988)
(-0.002051540225010876 0.002558321771037485 -0.0192377706437891)
(-0.004636136367949632 -0.0003049265452082147 -0.009308733393635513)
(-0.001196887183094932 -0.005673334756063126 0.006448151366233372)
(-0.0008618682284630313 -0.002065991650304026 7.478064666213202e-05)
(0.0009035852720969684 0.0006203034713063655 0.000332755071513362)
(0.0005553742320581321 0.0002630279323498903 -0.001111702368744716)
(-0.002709373250330333 0.0008983404674633695 0.0008662109210890358)
(0.001006635508830554 -0.0001120554481701491 0.001312409525064234)
(-0.0004768144361763267 -5.126595722449579e-06 1.447164306042514e-05)
(0.01382248704789673 -0.002429140541912246 -0.006938072886279257)
(-0.001075641352678772 -0.000305016501210617 0.0004909888063099374)
(-0.001181627934857906 0.00112987815982016 0.0002545620345408748)
(-0.04593714083192019 -0.006778882259159973 -0.00743640770380811)
(-0.005322109504100806 -0.001211981972388259 -0.004766182342143093)
(0.1209479203524491 0.1489064971758965 0.136365781606736)
(0.07741493015389088 -0.08422394650268321 -0.03182550969476464)
(-0.04557384227570088 0.05696553761425744 0.1430657522106663)
(0.002368623213176744 0.001168273348976594 0.0002517056514091923)
(0.05113335266809627 -0.04458868194190791 0.0237921405825087)
(-0.04538394123728583 0.006204674332397297 -0.03133018695869919)
(0.004724841504597624 0.0004116532557894546 0.0007115457750151201)
(-0.0008801285575571849 -0.0002334341606282252 0.001035661719910436)
(-0.003774526030353851 -0.01698472089375075 -0.003807027692478222)
(0.0002217871882494852 -8.420952249064766e-05 5.460244885020045e-05)
(-0.0006428630265910372 -0.0005962507307138554 -0.001200634815132306)
(0.003894613922897248 0.001197739217437595 0.001468067116993875)
(-0.002762076565771607 -3.276339259714923e-05 0.001076699755121546)
(0.001862222556789456 -0.0006157514949508459 -2.117417955244387e-05)
(-0.006386644647582317 -3.846462803713206e-05 -0.001701279759622905)
(-0.0007073648794259775 0.0006471191782972442 -0.0001702943928743423)
(0.001799607602891374 0.001731363847435548 0.003583162421013574)
(-0.00273058679648842 0.001555305656702291 0.0009759197226397667)
(-0.02292836206496991 -0.006641379135539263 -0.001532695028647318)
(-0.00147717184546949 -0.0007714095860166632 -0.0009189400649429573)
(-0.006113792361020081 -0.001200552272830475 0.0003064482345247064)
(0.001538438639924765 -0.001567630634379415 -0.0001433859838962879)
(-0.002032799224945251 0.000893655502499994 0.0008671528701525313)
(-0.002370828070251618 0.001953706309697495 0.0004743736617178239)
(-0.01151254928563997 0.001016089108457309 -10.93547573039864)
(-0.1629585496912586 1.113962477562955 -3.002036041303949)
(0.000380106238617964 -0.008522949894082971 0.004626281588282511)
(0.0009789729058074085 0.0005581510887275819 0.001866812484774671)
(-0.001080705191880763 0.0006998795116806215 -0.0001885776673500469)
(0.006676535391405415 -0.001405072871382284 -7.291642421719861e-06)
(-0.002885025266364181 4.483617041289661e-05 0.0005284142793111432)
(0.00151538569764807 -0.00152935479355666 -0.003764658939230294)
(-0.02595130179205535 -0.04007373525030913 -0.002589369274853256)
(0.0006853819570605555 0.0004330010276401742 0.0007723875053719787)
(-0.003322834661133032 7.732649865421434e-05 6.029961118430178e-05)
(-0.001121461868358026 9.410542792777496e-05 0.001949223146974417)
(0.005172548046748352 -0.001754428447056606 -0.0002443210698616566)
(-0.02108745584954032 0.003708363763485357 -0.01359258911938591)
(-0.01257190747038399 -0.02964293738212915 0.02155963650358879)
(-0.04000922340083814 0.05949933778892674 0.004134637289122883)
(0.2612579181368235 0.2120966065393524 -1.177288719586417)
(-0.005434358996568502 0.0005312816756998587 -0.00299644352617396)
(0.001983024003635308 0.00157206170636835 -0.004390044891469077)
(-0.0005923580381508714 0.0003566116834630931 0.001265807347373946)
(0.001095910108645561 0.001502215467362446 -0.001960647481011284)
(-0.04687705603657216 0.03836276927348997 -0.01032840622114773)
(-0.001934878826623251 0.0009929786226495244 0.00215841735694354)
(-0.2395432951001798 -0.1792342540788988 0.03742291422358035)
(0.08835719124912161 -0.003492814305782603 0.04364158551853831)
(0.03338136612880016 0.01592716266686067 0.008672536809584786)
(-0.0002880293551886388 0.0003433790713247289 -0.0001511869874184485)
(-0.001037670788915317 0.0004437061112830483 -0.0003000674751647487)
(0.01100112941407128 0.001664481788151057 -0.0074298897685929)
(0.0005564192306895962 -0.0001242782775706148 -0.0008107419333096078)
(0.001907792707302126 0.001389486100522549 0.001297928478154793)
(0.001349490401602312 -0.001642196857350498 0.0008503400431006856)
(-0.002826532369508296 -0.001065983325142037 0.0008428675337148812)
(-0.1415498654406515 -0.1281918376168477 -0.03013292785710914)
(-0.0005822819815936279 -0.0006014552833422881 -0.0008685451929623127)
(-0.004128904440562268 0.003975759155203156 -0.005384591755310522)
(-0.03652262838057976 0.02628740388152324 -0.03097483277665233)
(0.001729403958338147 -0.005032149397077645 -0.006983063218098946)
(0.003140715443667436 0.00042871500960135 0.0005648842212911652)
(-0.005834440840765453 0.002029877026177099 -0.003502861131284501)
(-1.198694014339441e-05 0.002063748420996173 -0.001678685710879538)
(-0.6420854042310605 0.2194040710129695 0.2712296495976905)
(0.0191481159464152 -0.00375947740723636 -0.01265152682889859)
(0.1973086886227328 -0.473543705981835 0.3478750574169456)
(0.00096252855486766 -1.61621981187997e-05 0.002524445600210767)
(-0.0001077402603819019 -0.0008927939205038988 0.0006838397773504239)
(0.1519360823872945 -0.3852263863776932 0.4201546139561146)
(-0.001726173729095337 0.0008379385863797062 -0.0008968805077174069)
(-0.002070486433119068 -0.001015016832291446 0.000622279098627085)
(-0.002669493402380157 0.002140124951389989 -0.001345252384873432)
(0.009504632937571974 0.00194008800912667 -0.00399936481630976)
(0.001707010708728044 -0.0008413577350018878 -0.00144195445127588)
(-0.0003274954924612557 -0.0005679090631239834 0.001152536455433208)
(0.005156783248296833 0.001670001251450259 -0.003956548579606525)
(-0.005832152488974586 -0.0002487613167908987 -0.003465695211964301)
(0.01505690876220431 -0.1609249708431673 0.20971557950889)
(0.1194504374699372 -0.0261649021255409 0.1486615578890768)
(-0.0003375538520700149 0.0006345509128376854 -0.001542253658714076)
(-0.0002162635485005748 0.0004616336532006815 -0.0004227696261174887)
(-0.001169169330445707 0.001969323419021553 3.251618235186745e-06)
(0.001476736845669446 0.0006280034830342181 -2.113692425390686e-05)
(0.0009550492289907656 0.0006050278904348245 3.398833167180914e-06)
(-0.001455188342731836 0.0005503384165529855 -0.000791488982916427)
(0.0004706518235387349 0.001348161174076915 0.0034124431733196)
(0.002285698327211386 0.0002021877783887383 0.0002707788178912104)
(-0.0004750717303681531 -0.001381452260463612 -0.0004697610377797457)
(0.001849103548674198 -0.001873248774481283 -0.00119948349098485)
(-0.001727149843739301 0.001390672515580693 0.001388359253747811)
(0.0001206692265761325 -8.572815656522685e-05 0.0001184140345546304)
(5.079285916811385e-05 7.903184131384912e-06 0.0003643065231796298)
(0.002098543885378423 -0.002072748794149266 0.001501943755478303)
(0.002132194856986938 -0.0007620668542235528 0.0001096033243068852)
(-0.1501363284528182 0.005349332454513227 -0.01499106667798334)
(-0.2866130574822641 0.04591609118301862 0.04757899554632752)
(3.926051419471312e-05 -0.0001651411265782863 0.000208956433070904)
(-0.008799516627261812 -0.003762962378173009 -0.006504256145533878)
(0.00430630757619706 0.0007717745255736042 -0.0001473121624781106)
(-0.0002329320494728434 0.0001645757872075051 0.000297297862069685)
(-0.0003569223955484947 -6.481656102622142e-05 0.0004487333613918849)
(0.0007048980260433845 0.004445491426764187 0.001592147394787551)
(0.001018429397126101 0.001255435445978663 0.0008296589494003509)
(-0.0003576927134687521 -0.001430667454869917 -0.001384336538103004)
(0.001464436851500514 0.00138433713873768 0.00286943036680742)
(-0.002394690292505526 0.001406716086433665 -0.001335079971678375)
(0.001797469954848801 -0.0001065709599177653 -0.00218572938374389)
(-0.003950634692368688 -0.001139328572424377 0.001053799268939845)
(0.001540053120370618 0.0008894325004826734 0.001501475846627036)
(-0.001065724727882414 -0.0007764145765559729 -0.0006250373471706978)
(-7.734758024574031e-05 -0.0003311396517784297 0.0004270368265731686)
(0.002355618785003031 -0.001392240817997762 -0.0002994399692479142)
(0.06233160308790937 -0.08424268399996268 0.1465680449687091)
(-0.001557169392021759 -0.0008601104409755113 -0.0006144289398480819)
(0.0005054298007067314 -0.0001310148034473182 -0.000479888385801476)
(-0.001624994253817923 0.0006954158997538641 -0.001488433619868014)
(-0.0004580247514120745 0.004663183941016538 0.006672485409879872)
(0.0004146919193806646 0.0004516471766288788 -0.0008623006086607951)
(0.0005650547479437731 -0.0002862961272127309 0.000486876101490215)
(0.0002686785661009806 -2.382368051014698e-05 -0.000116612767610824)
(-0.0003283523972472873 4.319256602762045e-05 -0.001250689288790518)
(-0.002999065154187272 -0.004333170320938017 -0.005820791339684039)
(0.001946170348335125 -0.002531267620074765 -0.00154182162936377)
(0.009926417006226531 0.001805047214317368 -0.007951539952831191)
(-0.0002547078302325466 -0.0006277471026904414 -0.0001888009116097162)
(-0.002768263747377921 -0.001340213143759455 -0.001631216639703908)
(2.900966186168892e-05 0.001143301392447004 0.0003141120785965879)
(0.0004283930958451376 0.0004585018515357997 -0.0001127277521603862)
(-0.0005898774834209174 0.000356977513025979 3.098601468867591e-05)
(-0.002174722284178506 -0.0008815314637067397 -0.00253779051308704)
(0.001474919618843986 0.002175393134348075 -0.0002157831039252007)
(-0.004667164580478791 0.001266429933510517 0.001464808587443006)
(-0.130815201982334 -0.004628434711212251 -0.02122437523370498)
(0.001834883311981565 0.0008155587192940161 -0.000165088751803835)
(0.007268709936116124 0.0009646193519856525 0.003933813194727366)
(-0.0009453359338927107 -0.001308490000945665 -0.0007315956267512215)
(-5.927720771878181e-05 0.001767926903961816 0.003534501189000228)
(6.802956158576969e-05 0.0001541878158082104 -0.0004352078689493797)
(0.0008045632742333232 0.002269723624889388 -0.002352991537320271)
(-0.0004354935068597949 4.678283692289913e-05 -0.0008653611567201313)
(-0.002608093708065754 -0.003950799808449556 -0.00218354221331389)
(0.00142128419354949 -0.0001294102616543091 9.297231433307425e-05)
(-0.0008205351443706692 0.002011919950973259 0.001866080120129017)
(-0.0002691466143776122 -0.001471082973118293 -0.00171490186757494)
(2.151158970946799e-07 0.0001651215695729036 0.00124232753271906)
(0.001065493012824585 0.0003356320824680405 -0.0001063765912315309)
(0.002574454697489213 -0.001408459540179077 0.00214366654557846)
(0.0001076352260073399 -3.954308584418686e-05 0.0001091397465548244)
(-0.004717838305581635 0.0006940030086042552 0.002643292200955791)
(0.0008156348078116004 -0.001220561848907042 -0.0001754523613525802)
(-0.001345962004340557 -0.001682430222127171 -1.53075342621419e-05)
(-0.006074602710042806 0.002427186847566794 0.0007368303124647558)
(-0.0007464802043365857 0.0004063571495536623 0.0001466059456352437)
(-0.0007390488095125072 -0.0002988339050909526 -0.003644257355188123)
(0.0001362901297058175 -0.0007812791198359781 -0.0005265434988148431)
(0.001090768865360455 -1.62401445077172e-05 0.000866716330101224)
(-0.006518087990505512 -0.001729857310185458 -0.003091448740512066)
(-0.005792779192592653 -0.0001264354841204869 -0.0006939645171052924)
(0.0008796619497030421 0.001905999130631196 0.00356358055685336)
(-0.0003124925042598224 -0.004379847546607367 0.01691681290473483)
(0.0001883704671070408 0.002423075211913954 0.004193268600404768)