/*--------------------------------*- C++ -*----------------------------------*\
| =========                 |                                                 |
| \\      /  F ield         | OpenFOAM: The Open Source CFD Toolbox           |
|  \\    /   O peration     | Version:  v1906                                 |
|   \\  /    A nd           | Web:      www.OpenFOAM.com                      |
|    \\/     M anipulation  |                                                 |
\*---------------------------------------------------------------------------*/
FoamFile
{
    version     2.0;
    format      ascii;
    class       volScalarField;
    location    "2.2";
    object      p;
}
// * * * * * * * * * * * * * * * * * * * * * * * * * * * * * * * * * * * * * //

dimensions      [0 2 -2 0 0 0 0];


internalField   nonuniform List<scalar> 
19632
(
0.7705274285553673
0.3906718087000502
0.5213894555141629
0.2527913226165239
0.2729650507377887
0.4785094107900697
0.4958875582166022
0.568855499052814
0.5292155800728758
0.4368853001362222
0.6075479248263884
0.5149475392322556
0.4733801034546024
0.2899894456788901
0.4507592847643218
0.5470503154910241
0.4287825406170274
0.4793681772082471
0.3441275755308438
0.6483294089122064
0.52858944276112
0.6903265077772096
0.390692905383616
0.4865824502809502
0.5833250877721613
0.5231977677706193
0.5972202976128599
0.4003271045676395
0.2889761427917172
0.2220831464098233
0.3542614975387028
0.3893033047600393
0.4281832813546156
0.4520705764329829
0.4033057201730909
0.4186543479745187
0.6957280263157782
0.3988038080912776
0.5741356047454053
0.3377647649375015
0.5109931031247594
0.5431634863525998
0.487515771643847
0.4813306122474334
0.2877267505656962
0.9111639954206616
0.6696840202947268
0.3835174672077319
0.4500749358211302
0.5271454866138315
0.615712413087625
1.336196887319092
0.3009613336007737
0.8775225577493998
0.5395276448851927
0.3090268358376533
0.4668789042101787
1.062095198850161
0.4629192400757975
0.3324487918035565
0.3047236936537415
0.2267825129884542
0.4778354224413726
0.3515406797688241
0.7021283320206787
0.2290596553770334
0.4959929633259101
0.2398567686183709
0.8707280053299036
0.4175555989917854
0.3651217235961384
0.6795336224563706
0.9669320905913688
0.5490705798225497
0.9311686194017782
1.146989228444445
0.5715319834910096
0.2763716362802174
0.5377158230135562
0.4870851316515031
1.039023763666093
0.3508074281536809
0.7552596592884001
0.4725011155706241
0.6615636344860344
0.6594801225959637
0.348512300958296
1.718615658809126
1.017724403692117
0.5564202757263305
0.5380718869254726
0.5611624191398674
0.4852487109965325
0.3707261576607548
0.5348619041344176
0.5694147402556728
0.4066111012234317
0.499660536263181
1.244705460451169
0.5534816890539477
0.2002405313177561
0.3564846467329401
0.332572281549057
0.3355415213387285
0.5685369218282048
0.1926972528779127
0.3603765624273295
0.5256759228808907
0.6618046457837095
0.3991052989846844
0.6267634751484163
0.3133398776448909
0.4601270549160513
0.3503340008507703
0.271207650617356
0.5977935911735213
0.387708615638882
0.3723184029489028
0.4515319759497441
0.6017416890849168
0.6810759989876085
0.5671547391799003
0.3670025977036426
0.2846188144176432
0.2832213101374623
0.4790463465940794
0.5744605288575977
0.5767690104158509
0.2062624266047924
1.02524058061813
0.9250210961290664
0.2700141137035973
0.5129081669029742
0.7256666802978076
1.390665936639298
0.3445845649675596
0.3017002644879941
1.157711042911575
0.571076547200613
0.8916939681005055
0.3586874112010488
0.689030275968163
0.4546466503301856
1.159663095966164
0.2108098097674316
0.5714964846156885
0.4752047244182853
0.8997038310540291
0.4152736856653029
0.771427054002608
0.3989510942455675
0.3643608050280335
0.5459843557420829
0.3883440425504545
0.8122428232316556
0.4086946024382346
0.950318082949993
0.5150961829257809
0.7180774774056284
0.5849403852731799
0.3054693015925145
0.5376855622958894
0.5158499853594593
0.6271606050592063
0.4563896724432766
1.061838684315511
0.3605280900357986
0.5868489177810466
0.5294954700728944
0.7622392235102639
0.4731819303819327
0.620667313511685
0.8585893787253096
0.3010966383880898
0.8816176655829896
1.087560379021421
1.07069239293802
0.2921611966918844
1.100622726244197
0.9728488409405346
0.485285100017206
0.4717895433606518
0.4710356346769062
0.9161007909523616
0.5989851261179074
0.4145974487628207
0.4853095810228514
0.4317874617598218
0.9264423880682413
0.3072238552750533
0.6298264419192401
0.36957643159251
0.5220300424216138
0.4935824013293763
0.5600694938654847
0.6381294128050231
0.4517253540442516
0.3637821846720292
0.4547646002239139
0.6863878663263685
0.2507175658199013
0.6145399078223361
0.6945126563310324
0.3654105842487826
0.5912760875076497
0.2502066409251844
3.324155950710452
0.407210605128928
0.8014296019469302
0.4749054942665903
0.6280001102909339
0.3909671982546393
0.4346289791160878
0.3123814657109383
0.3750125436302331
0.2390354418785469
0.4942146775762584
0.7994660721329434
0.7269493880183879
0.9949748614671452
0.2594712425353928
0.6290541339042984
0.840229833553957
0.1699209855818113
0.196779517676282
0.3970008690075255
0.3204390333554446
0.4216456553046071
0.3303607157035682
0.6245389883099816
0.4736742816900836
1.342269075060635
0.5663576102610541
0.5806454866191649
0.3025140143801902
0.5395995410487656
1.240037231843612
0.5919811012893048
0.311704363981813
0.3469282712805168
1.50001360313238
0.9630057658808548
6.02330192136021
0.6195478293303142
0.3983706720025408
0.4349347361080568
0.6524939964254125
0.6021940867046865
0.665325677194083
0.9010566874312091
0.2196133377579205
2.246428952809431
0.5954253143399162
0.5958677688677511
1.121673411955866
0.6095586818869859
0.5781106616473066
0.3207587320074204
0.761776899089238
0.7059956224919848
0.7266932627321826
0.6803966081812374
0.6446938298980381
0.5681421009821412
0.4735074648743736
0.04223088611958526
0.4668734798919394
0.5258216948973294
1.18122848302473
0.4692465130714414
0.6093938523919066
1.012593129670619
0.6740236491332928
0.5155446888455953
1.145703085549216
0.4682427750156682
0.791566838898677
0.8836413628986001
0.5495494383392517
0.6013189664065726
0.6006665802385232
0.4429784862923578
0.5301903120977249
0.4855542291443524
0.3788744309858177
0.2564344640271041
0.7947467249101005
0.8348132720967197
0.8668778893521039
0.3710902483648162
0.2266553129922893
0.2594206760628984
0.636175371909305
0.3317210755567674
0.2899405358653643
0.39558320887645
0.2355932867570574
0.7757849504160126
0.8689765447208342
0.4478549724093661
0.7130197722665221
2.002874976070676
0.2414039482105572
0.4866833119917242
0.7874246718730801
0.6978071795651603
0.4202750174043963
0.3280591561385011
0.271676200733697
0.7075931699314756
0.4683175744439607
0.6798647923677372
0.7602561306850981
0.5673963387813468
0.4603728641040757
0.6130997778755887
0.7501518587365975
0.3639271561370955
0.5075877491464889
0.4761630560329206
0.8643944739128133
0.4467218290527273
0.3918017912107378
0.3124964922305549
0.7367757826498578
0.7556240104012586
0.8006453910093918
0.532805002179939
0.6657162816163339
0.5332725569761435
0.4073924176615714
0.664030826299065
0.6772927914513308
0.8529803577836071
0.2521429194716139
0.6991497122165876
0.3510136875953576
0.6241506933189778
0.3548057129404232
0.4529479045626525
0.6975211875440037
0.313899119584259
0.3663614665819792
0.5300065062744131
0.6762193712583419
0.6231504638290517
0.4256785674995583
0.4144133040538874
0.7252232606819747
0.4082262538593415
0.8748561814171711
0.3225979136337471
0.2687406440672511
0.2791139205931777
0.7436512747866115
0.232317834584483
0.3860964246092049
0.390245811916321
0.6522716366261767
0.3201426312602399
0.83663633020747
0.264100004953461
0.4407326293479699
0.5360170272230594
0.3774338614285525
0.8429788919823874
0.3863442599434826
0.460687749779899
0.516643666556426
0.5464603694871548
0.6437271721316932
0.3336628644013104
0.6352228394686414
0.5445195704514024
0.3899999710738842
0.6141769595979395
0.210918141745945
0.524961045619058
0.5487896196760299
0.3455591906428159
0.5655593547799495
0.3357779205051219
0.5879898481145944
0.6837132080517249
0.4167446756425119
0.8210127303433208
0.9959684289453095
0.513893744348394
1.322771801897671
0.8049839102709349
0.3282923121042075
0.635809567787163
0.6173881851711031
0.3584236532151226
0.6057058242857363
1.475990521950343
0.3992459387527016
0.8424432665092955
0.5916571753433754
0.7059099770351657
0.5829712054531889
0.2244253569354563
0.3431686020696179
0.3457372055712699
0.3632894687803154
0.439492391195844
0.49419895306572
0.2898510660121091
0.6121706748128877
0.6071737331418157
0.521985941075844
0.3340890580192052
0.3475350677752213
0.5090138203906441
0.2554451150871092
0.5482451731890939
0.5619077032503602
0.3876671091550484
0.3020986480793302
0.3474260209181624
0.3365717635557726
0.5412692486054548
0.3911106647954902
0.5780029709407667
1.418254830584789
0.2241231753927498
0.897392718905749
0.5349870326906426
0.5372802808303687
0.4497081520351068
0.3788854484781185
0.5453943765628145
0.433705827962767
0.6054981200535616
0.7975150649798038
0.6922219947103694
0.2418610291403073
0.4679565624599614
1.417571512582875
0.5685979279583998
0.5454926865988386
0.6921378854306244
0.487572785586973
0.5201514729731506
0.5107126401761732
1.377340589700019
0.5720308649008797
0.5710587953220727
0.2648892779219392
0.5242437567964402
0.320839636157411
0.4781135656678678
0.7440328874265891
0.176664450733815
0.5908218061938205
0.3505548482484728
0.4938142804537838
0.2707556020674036
0.3396096063575427
0.2483077002873791
0.9837742695341978
0.6779250407705718
0.6916877875791394
0.50538198970926
0.5916458619366516
0.1475404521897812
0.4442228332961728
0.6357835728655679
0.4144318210440412
0.7204984471123973
0.6138960451734946
0.6532052217186013
0.7655087117783742
0.7467719333542916
0.545146352719678
0.6118005727591628
0.5572155057027152
0.6829774037734105
0.2192725024182167
0.3758323773531944
0.5413596303488056
0.9762433437919169
0.4971679477604871
0.3333130819955527
0.4948070293849409
0.1921838950076852
0.6135864932786284
0.8940393833935307
0.7246078261432649
0.8980866346013515
0.2942157360420209
0.5411204858595769
0.7312624004636571
0.7907826672070712
0.5138926179466375
0.7443190920128984
0.5040060966019227
0.7491219886272693
0.8006904797618183
0.7413467660902913
0.9778094713425959
0.3055930738958595
0.5874564969349038
0.548045320229508
1.317023179138048
1.056641563015696
0.3974783928049169
0.5861105865519165
0.7681972853730724
0.5750347474430526
0.5471069509888505
0.5034726735247845
0.8453406281982977
0.4117431930333897
0.42062545864736
0.600167549365405
0.8935733950693949
0.5252172224979412
0.5825743578748437
0.8275532433753039
1.113792498012448
0.7668726534840965
0.5489268296453719
0.6196692893113378
0.4953047980247373
0.6548970604202851
0.563013329290761
1.191403574268312
0.4422390610208844
0.3463861548937386
0.869554181678134
0.7318726982411742
0.7034268599334459
0.6407922988837492
0.4885448343740657
0.8774731131336521
0.5800024351500499
0.6420326494337778
1.836053921782217
0.6406790331896733
0.6333363682916342
0.4150765887144714
0.4415526579598906
0.4874410546769499
0.7660344130289869
0.6154084674651829
0.6271555524707445
0.7605046116725592
0.7184623942599743
0.6104461966649954
0.6337459790090552
0.4581589270745182
0.4857469756530298
0.5276343762530233
0.5332695767379487
0.6860256655423748
0.4726230763789064
0.6629517536813087
0.6878980902876419
0.6852670317962439
0.6779377119316335
0.8781412319254536
0.4904310789188682
0.7187050989250769
0.3167252029435264
0.2776488492456481
0.4788566604980622
0.5352504209188294
0.5183888548833639
0.5432933310529938
0.5451799214072949
0.464213615344816
0.5754435966836207
0.451063096559036
0.6006415414088199
0.370068255215525
0.5809206830798223
0.5826953819133588
0.583808353606236
0.5804431494589777
1.074228865482708
1.344958124483395
0.4350066208744703
0.5768651124366683
0.5776519767634004
0.7018925044364712
1.148086451286277
0.5877061772598514
0.5774820662352883
0.5884966496099695
0.5910427596123702
0.5807625900744469
0.6070945466049853
0.6198060869809505
0.5221001312489532
1.658562153140741
0.5797732786352205
0.6886578923757269
0.5169796737203374
0.5268746671475819
0.5109375853870947
0.5271804191805638
0.5224560596842891
0.5157253680942879
0.932947571483819
0.4038169998680858
0.3707084388229122
0.6138801466792756
0.2938658800993191
0.7564353149314065
0.4363028080952731
1.903282010136529
0.8268757402903052
0.4419729107270276
0.6367529672077578
0.6356804691527104
0.7957168238796012
1.101397953226953
0.4864088783439799
1.005093073712364
0.6418011554062332
0.7059198068703749
0.7107578514656451
0.7299772589478927
0.7252781353240496
0.713586108213082
0.4947162632629525
1.115132760614045
0.6955575702020081
0.4684971090127127
0.4433630503596586
0.4174200406675302
0.4483198840454302
0.9916729912592886
0.8259784695524413
0.4406242745611095
1.32468814392788
0.9396805519763773
0.6252130422758435
0.9849623910311421
0.4384349197282313
0.6311646109249697
0.7054639968581544
0.6532591873681586
0.4757995227798917
0.6438394193720521
0.6080705202879807
0.6139454806225259
0.6615997873344517
0.6580980263369038
0.8802020114321625
0.473567865335142
0.4701362108240673
1.124705712210519
1.182557319646864
0.4952816501826472
0.4921129678896995
0.4058544797633319
0.390372299137723
0.3956272769781329
0.3922636918965165
0.3867054206545273
0.4066136580722065
0.4999290574430782
0.2725533879582093
1.233587143226191
0.4227321702341043
0.6218587162752005
0.6619771863337089
0.75964695297485
0.6533332620091906
0.6451656273609838
0.7427124965606464
0.3906554744936786
0.8741586620498178
0.4537230050101201
0.4237409649342996
0.4325862741876043
0.4551626040046162
0.48503308143392
0.3147625100624492
0.4460448467244164
0.8752015908095548
1.255728547995685
0.397183283704072
0.4525042122914533
0.3997977308610193
0.4444285551911547
0.9805778516561194
0.357588833790242
0.3808540447425899
0.8591208728342279
0.3467641829073779
0.7603471699315684
0.3554749145176349
0.4632116010245473
0.4976802221124145
0.769708044640801
0.4696989444429407
0.4908892767823336
0.5467863534966719
0.7813525373088409
0.7983559542107518
0.4571891045816848
0.5032328271319682
0.4744068080663892
0.4590582613532723
0.7597103702746014
0.7416646591843929
0.6226851987556805
0.5821286421682791
0.5687017058043625
0.5100600466770745
0.4279348907993717
0.4940844158438982
0.07970325067580684
0.7055674612985163
0.3946139573700751
0.7192140306051658
0.3021197258003895
0.8254977468265006
0.5795299295149416
0.2423771892304318
0.7927152131180312
0.5832169099107539
0.6148277901649778
0.4935080889687051
0.5062669447393042
0.5848495686059944
0.7179329099635418
0.02759587966673321
0.6795626079275471
0.5792225107407484
1.14916708445338
0.5611159468685633
0.2921996405909754
0.5884087491919701
0.7100561943433135
0.6324139917337099
0.3536541112993388
0.8013466754207629
1.168594332746842
0.3717936276221725
0.5784422785037143
0.5747656268178891
0.8378324918261222
0.677329225267737
0.5783724055800686
1.045610551650258
0.4138493311264119
0.4264453890773012
0.4639439153128467
0.384601340383481
1.992812582892757
0.8903966803782311
0.3433677542430705
0.4335537984558122
0.9158010237758825
0.434674112047568
0.9686013689246995
0.4127640728261573
0.4281866705701032
0.2578572743411301
0.7156335844616302
0.4424478385684887
0.429139815454011
0.6448642975974757
0.3688632699192045
0.786058103544462
0.5810384814015678
0.7180382069216407
0.5941521010028977
0.5445025196982083
0.5307580271741226
0.5330686776611477
0.5437922004514354
0.3729325836229601
0.3234389146122134
0.3753224778778262
0.3780356963387485
1.309191717448931
0.3286348100893468
0.3733396703661546
0.7377381817209129
0.6845880654423
0.5315865379631756
0.5990029433605448
0.7580086098387989
0.5848651715722158
0.5489442936583296
1.059979507113066
0.6901455425906836
0.7337941401266892
0.5616309843175747
0.8733126590762916
0.2576751291663024
0.2138195987356624
0.4154988369293937
0.56194026162319
1.117174627241345
0.8919141226257808
0.8670943165721465
0.9701691400219328
0.4697950559481277
0.4508732721356713
0.4486147388383483
0.3415762094599961
0.614689976084287
0.5345215312065326
0.4663450787251496
0.6343009554734351
0.4758568755538791
0.9395518572561382
0.3168030159095673
1.425335868922119
0.4462251827532954
0.8471448217662912
0.5313619783700058
0.5803782133876915
0.7485376697085391
0.7420115893675289
0.4134422704706254
0.3947402979224977
0.3856322575275658
0.3605635393279048
0.924635873520352
1.260022798276613
0.3410091847068557
1.0659048443616
0.884047043099656
0.7223895733134028
0.4511209868011301
0.6788105302602583
0.7470195489221397
0.6248718491734557
0.3450419760695021
1.041140191685626
1.411067667873968
0.417551337372298
0.6822169583310138
0.8958935835088822
0.6985602648349371
0.7049016299849266
0.7721964241378335
0.4706573027769259
0.4440916377937961
0.8692225325494981
0.4224466291350826
0.4015383211280597
0.7245019635874095
0.3500248702250676
0.2554151393999904
0.2834040940666285
0.2797427469130305
0.2948988786040007
0.8079710855033668
0.779018057258457
0.372492146120336
0.3862289111650186
0.5503523274876113
0.9110558872863467
0.9245740913078691
0.5841451546194647
0.950357501453678
0.7901734402001365
0.05602405219586092
1.037395638922414
1.054822967219033
1.086346063176592
0.3639249814191903
1.241809672288754
0.4099763720150297
0.4856346457378566
0.4230821139412531
0.4132220568535522
0.4093504338899399
0.5366312472049064
0.9974020059047365
0.4633982616419983
0.5868173046614398
0.4951447227486787
0.3609992547476136
1.676000815185585
0.5249287656220732
0.6708894993114716
0.8659179253900269
0.5500628467936299
0.8201685577728024
0.2550736977599419
0.612742939012918
0.9318979597061718
0.2763361863479603
0.8704465564784456
0.7233431442430259
0.3728145218885421
0.2331455143572382
0.3923942219004118
0.2192071126373971
0.2286832536497063
0.4051303739228856
0.3995981301306631
0.4094972099925372
0.3970306767050083
1.338798845529019
0.5722512990755587
0.6410427460944547
0.8661630491772792
0.6962906696675197
0.6629035573415104
0.9017836462061114
0.7194132514019298
0.7950884909133726
0.7078488901559419
0.6830681598664435
0.3773656598627462
0.6557063173217235
0.4675486661734977
0.4756326447996937
0.7789114913559158
0.5468826550733884
0.5238008437175061
0.5146419510072469
0.7119958246765661
0.5031410078202181
0.4717705216236627
0.315547384123938
0.8117212876223492
0.7565241564963263
0.194607703275315
1.011798668825523
0.7115280349056052
0.2244614001508975
0.1717970416813945
0.3548789642240711
0.3580368376830891
0.3263646771485105
0.3427353251957001
0.4011395961905673
0.3500761753892882
0.3311674994221802
0.2586852472794815
0.2655349397289676
0.4506973109177834
0.2885749963867235
1.11146872840332
0.8353366235173828
0.2539533750669372
0.4730555795158395
0.6515379842831288
0.2399385959807556
0.8580483196429807
0.6282677391943036
0.6949889361205049
0.2275185506124991
0.234231122788547
0.2433829964172189
0.3175320064390924
0.6960594355066354
0.3300205558254695
0.304430821848465
0.3651262871114766
0.2769140898654521
0.3508073431326984
0.5877235627280141
0.3113385555263443
1.176079093134683
1.051808338972666
0.4670216114470613
0.5079626692704955
0.4723919696647765
1.042864325528754
0.2725266993643641
0.483847048871668
0.4730982011488092
0.7606924392050852
0.7275870180350941
1.000879152463062
0.7494380883165674
0.3681162658248311
0.7889070485455
0.3715462275724657
0.8208368912705319
2.19494019379006
0.7622837314950697
0.7516745145327717
0.6864119201940303
0.917192609056282
0.7626483667107528
0.7590928041316359
0.7660177659106957
0.7101471376840378
0.3490965368392897
0.2268070307254325
0.3613248138108117
0.2043729279765197
0.3685673482868715
0.9549484812614306
0.3755141071558151
0.4558186479027189
0.8850758797127344
0.8655294661736701
0.4034687575322128
0.9418182512137274
1.003033437984103
0.9831952532025637
0.2878104964792749
0.8883268911619916
0.5187048392279234
0.8744230288681875
0.363360711086286
0.8371859394656929
0.4912876189991565
0.9086035477467029
0.5828419025219399
0.8126614101381778
1.079750370287364
0.7300398335064648
0.5857136947772639
1.045193874339841
1.399630339223896
0.8807133990518806
0.7238145126440232
0.5663893307466347
0.4074745958976059
1.277219327978135
0.7674415614025047
0.5899011013501846
0.9669863376929972
0.3646869250617529
0.8722670857317733
0.5488436264970142
0.4850728156413524
0.3970877224182865
0.323439155947314
0.4571128621333985
0.4727864279410944
0.51536781365636
0.3186080251446359
0.9496648454045188
0.1301236077878745
0.2224244005738711
0.5952597726736489
0.4820497063141415
0.5023517388979708
0.3682862406151627
0.4997804905561603
0.4096381731948028
1.012338984593433
0.3580406626356233
0.5525107541506679
0.5450714483733352
0.5581382654643002
0.5214268493277499
0.5230751680083972
0.5338741753464527
0.5560317638550518
0.5532791745007173
1.104275592304185
1.015065518299054
0.9131609092949963
0.9077460013807795
0.4772922922099825
0.634807902547919
0.650261725672329
0.6655392958782458
0.6300542751197299
1.057690543750715
0.3586470269657359
0.9284326985061809
1.004631145841873
0.3005400358410346
0.2859469454669714
0.2795029886718062
0.7546811623634778
0.7657840707337188
0.2996579756867483
1.145132922984937
1.072174580895283
0.8805090033916176
0.2881065535963452
0.4225740839510007
0.4761726829810252
0.4742517072618611
0.3987144631285829
0.3907580370251504
1.086969743293056
0.4417156773393759
0.768522758219869
0.9220848548292606
0.9143456514505313
0.4146638507033836
0.5159542274364377
0.537285272462385
0.5884110904403621
0.616106854420199
0.4171770361162268
0.4020720887700112
1.399076391062711
1.596007452322022
0.4047163773963414
1.475435334741559
0.8309992779477922
0.7766908824874199
0.3954797073278414
0.9263273807965547
0.8780645397126526
0.6146821024868705
0.6143829796558832
0.6258219425277168
0.6532516934382453
0.6704709711769536
0.5885223170095238
0.7579244066218204
0.5688209676321797
0.686631752103628
0.6706055800046328
0.6311268559358507
0.5565712639016718
0.6296101461205021
0.6084523212668198
0.5352434246924332
0.5500480499810638
0.5384608434297916
0.5831269597890708
0.5746671595721937
0.5665887764598362
0.6584664054449405
0.7216387150009187
0.6352545107680833
1.069082550321319
0.6490730118790046
0.6696056617360231
0.6001304143982635
0.5883421347872472
0.5941956222019121
0.6062168572727483
0.5917805416181988
0.7757057659834244
0.392302005457456
0.7090279913329055
0.6829363981902725
0.6631315695711126
0.7081102742038096
0.5852239154591274
0.5825429731941865
0.7166834879823073
0.5989211026676288
0.4767485526248725
0.9610420054746491
0.456384956401287
0.6849243932316734
0.5176204684479722
0.7175563051124952
0.6380266194447655
0.6239705218283338
0.6932633783957258
0.6156087840113245
0.6815764838276022
0.7014051095132804
0.6733945855680101
0.664482845966354
0.7019085518801725
0.7092525466336065
0.686909724603791
0.6408330909554094
0.6525625794534339
0.5815920711201267
0.5754432606720852
0.6104715027661548
0.6201177889481774
0.6875149635858624
0.7143577208499631
0.8497493522854377
0.6605008116462905
1.184006696726594
0.7647286690303166
0.3714457664755173
0.7745749929055534
0.6342548980184832
0.6571731082272347
0.3356062571056728
0.4413499294152
0.4242418596714694
0.6311504829486401
0.6558749618033698
0.6262857986655636
0.6261281275643439
0.6267789351023308
0.625410702799304
0.7254743622358005
0.6693962445600656
0.7427650504675329
0.407330910169786
0.7028449565877181
0.4849956844034062
0.8045329335276575
0.7781440341616619
0.9340213773629237
0.7752183951040321
1.086095121175888
0.8694153842243526
0.9601620858312993
0.5687245482364094
0.5765162640594582
0.561156610137961
0.5630252918998445
0.5656170961299225
0.4177305207057194
0.5744014844330855
0.5519670149858278
0.7898816282625697
0.7593765251449436
0.8158922401226368
0.8234776232357686
0.7316737160354131
1.150571786405391
0.7920015910609115
0.7762527685771448
0.599291509545257
0.611095696685786
0.6319321968096901
0.681958592198093
0.6697175716406799
0.6533945768956494
1.779437421662217
0.6600517155110952
0.6768579405040792
0.6648824288363594
0.6999801645174187
0.6888976588488499
0.631114762177668
0.6510649559624835
0.6988618807147726
1.712659762672764
1.635574680761662
1.857287720802983
1.183577562398058
1.69292161053845
0.9946712351903839
1.35130347647808
1.413277063396732
0.8569181274064542
0.8183003461078089
0.8054969937971905
0.7803345560620456
0.8223012488725912
0.5396920079697193
0.5278053289300509
0.4894010930326783
0.4745054220528304
0.5192828787960032
0.4935591717176089
0.6141646388099078
1.116800031940028
0.4238522655643449
0.6724894591500187
0.376816769564656
0.6217337738950274
0.4759289121961433
1.400452899822173
0.2575507348678432
0.4231908684567804
0.641772047853884
0.3406317944371743
0.5534641393569842
0.5984970680233819
0.8629295447090178
0.6886193921124676
0.3146010130134477
0.5885062769888273
0.5599426628602053
0.3527135355627383
0.5183014649549029
0.5792658907499799
0.5776162001771318
0.577024070700368
0.7210659989071544
0.7428246617989933
0.7691652215548199
0.4752520568670455
0.489755561561694
0.483123820928701
0.5111467221823144
0.5103394967633791
0.5299414823172389
0.5001331825320721
0.5234759502417845
0.5329194427282101
0.5171285797031381
0.5118935378501888
0.5237355519641416
0.5022103576848662
0.4970094891051827
0.4368593259029198
0.4544866570183653
0.3761152968915675
0.3644632789881018
0.8892426723703041
0.4383117914397875
0.4380767258983777
0.463946544372388
0.4858814538791301
0.5155191648943186
0.5047900324425627
0.577238130510128
0.563103491408785
0.5770933043698873
1.10043101584599
0.643568914859721
0.656618151220504
0.648143768951118
0.6201888805062139
0.539651794330249
0.5050085027929788
0.5469638924361822
0.5580122156165659
0.5415551375832852
0.5612807431470143
0.5743807933226492
0.7618540115310287
0.7695904575256964
0.7145391453756772
0.7240277998043427
0.7018638398377777
0.7423562036820996
0.8870927246488087
0.7762964219041536
1.074908662735985
0.6136352375301508
0.5803377531908864
0.5900006926650901
0.5973448014551385
0.5950518548350977
0.5838107804101735
0.5812520650750665
1.303249950566591
0.6554167924233311
0.5562430549929995
0.5295819181234225
0.5625167981291251
0.5565677355595412
1.230863325556446
0.4973775579129956
0.5822550864995629
0.933109395561323
0.6008764186717235
0.5974350159551467
0.6437037273668753
0.6513448859209597
0.5715521276517809
0.5802937450626489
0.5646002395762321
0.6705746285670641
0.6453716213284451
0.6741826228260444
0.6484513613547289
0.6498457675064139
0.6994378490145031
0.7043802303547102
0.6750061405128027
0.8359483205478516
0.6933236089174066
0.6181723397456304
0.6498399437125159
0.6315351798472254
0.6377951861884161
0.5374436299804511
0.7312592544351471
0.7442478140099179
0.8855375237627724
0.8201617749050713
0.9191052779213761
0.9352187460294581
0.9114583652539731
0.961689275742228
0.9939171863429975
0.8709990319925165
0.8899995410994884
0.7381171204263188
1.182602348444517
1.178155841625604
1.166566794451279
1.213718445097781
1.376013631094573
1.446691258894162
0.884385910234377
0.8295049722158578
0.8989663476499608
0.7932622763221892
0.8473280925497811
1.007157517802193
2.632695488997737
2.987707709174062
1.997605445244031
0.523767296958795
0.5846195152104702
0.5511858047670521
0.6745640400612043
0.7472323959993578
0.5233343058558525
0.8482185925385081
0.7848765648056585
0.8526049555191826
0.826214146184302
0.4556743512453574
0.4945213528385362
0.5144203694701476
0.5770654897601193
0.9525119317518397
0.7108631534078939
0.6242379595993478
0.896231354560493
1.116324416033527
1.278498511285612
1.444956374967775
1.313088692133918
1.317644045864673
0.3163368730371282
0.8183992954206738
1.422474509296756
1.002850631637492
0.8187600854662328
0.8175811004303285
0.8605706538471313
0.8171393622743057
0.7794686145083489
0.6906295165892464
0.7147915478036997
0.4554185739830695
0.7828764925780421
0.4306547049750649
0.5308980517898867
0.77945603388717
0.8157974103822496
0.3559690574495802
0.818837565386029
1.037759170482152
1.068577910350183
0.5885924760647808
0.8038897096993527
0.7063592964351906
2.676405390496035
0.7111860527292232
1.027451774058062
0.805941069180718
0.5890169236288858
0.720266717775023
0.9925391722638419
0.8506977059670947
1.070270822838204
0.7415142548342527
0.6247473793413056
0.6361980184475561
0.6153999546937529
0.6291024353003265
0.5987199275431041
0.7952586740267319
0.5459251704163975
0.705197711789864
0.3743859485835466
0.4078692301221025
1.816530011821376
0.4776218060152465
1.392043120350318
1.622731109729887
1.513973912201997
2.217776631989355
2.003769825668855
1.910370684394008
0.9905620204211322
1.034398717488362
0.9668628255351228
1.026103410709127
0.406032154150081
0.9166130192710672
0.5045350235587888
1.049829570277009
0.3936032274439479
0.2771382476036238
0.1588108218780754
0.2676694920756172
0.7435217955389795
0.3697474401967962
0.5035210803501079
0.5077568196050262
0.4101623259721404
0.3751267081861882
0.4681995325335842
0.4168096214894684
0.4395477968762557
0.438223451515089
0.6296485498009742
0.5315609303659102
0.547328289122484
1.216286457946302
1.028211553722174
1.350410004796446
1.395787298696899
0.6957296669462006
0.7579769557183291
0.7041153163668628
0.4545176547428434
0.4095687533168536
0.7486580696124248
0.5274886994172007
0.558376549002413
0.5224530456560889
0.5902862370588364
0.6936541834535538
0.4554377850649191
0.6128794541862381
0.4584857316414679
0.7406764258117046
0.8918720389335192
0.4020909230553921
0.576416114011032
0.7190482355082031
1.177160039911721
0.7348111304474486
0.8502225911965912
0.2252854587875298
0.8121769351956336
0.1844448159016399
0.5274329242474946
0.5277868255418231
0.1832476921220358
0.1247243380186119
0.6038092443050006
0.6096277902857531
0.09457690446847972
0.6021704481021557
0.5713784123462474
0.7731929525674887
0.332300680093971
0.5934215749425685
0.5477482180347494
0.5304908575947903
0.5054046287162508
0.520278305578617
0.5133586081871683
0.4816646657716686
0.4951734915520539
0.480461464094166
0.5155296922143755
0.5475614178152898
0.531073442941883
0.5463519154494058
0.5263139151101222
0.5657067375292565
0.694074650085719