/*--------------------------------*- C++ -*----------------------------------*\
| =========                 |                                                 |
| \\      /  F ield         | OpenFOAM: The Open Source CFD Toolbox           |
|  \\    /   O peration     | Version:  v1906                                 |
|   \\  /    A nd           | Web:      www.OpenFOAM.com                      |
|    \\/     M anipulation  |                                                 |
\*---------------------------------------------------------------------------*/
FoamFile
{
    version     2.0;
    format      ascii;
    class       surfaceScalarField;
    location    "2.2";
    object      phi;
}
// * * * * * * * * * * * * * * * * * * * * * * * * * * * * * * * * * * * * * //

dimensions      [0 3 -1 0 0 0 0];
oriented        oriented;


internalField   nonuniform List<scalar> 
37380
(
-0.3716001990343659
0.9907504705237974
-2.767839378561167
2.148689107864177
-5.26617107213675
0.8300805971563807
52.36316225771721
-47.92707178285572
-18.26511591140235
21.8875269899411
-22.79830811387925
19.17589703658084
16.8018621884726
18.25041165837446
-18.53884332111099
-16.51343052570547
-5.07526706966655
16.71823296236249
2.800923698750384
-14.44388959127651
9.377076912954056
28.02199763932217
-20.91678817946276
-16.48228637217538
-10.21547315003813
-24.79329925306901
44.38584931632148
6.944055686697337
-2.992072027878549
7.57582521363355
-11.52780887416994
9.614705508192399
0.437519913871027
-7.385897870117125
-2.666327550998585
-8.897428777621107
7.556519396943694
-3.160199484184121
4.501108859881135
-7.504580166923096
-7.276566725963302
14.76115831216066
44.35635110698344
-10.711722182884
-22.29668829489093
-11.34794062885473
0.8701838449124872
4.812110447542913
6.95471660190426
-24.1046895885729
12.33786253918937
-14.91928394394433
23.71540485777735
-3.39743162868846
-5.398689285644604
-1.487480142879004
-0.9283027186685319
20.4005767612825
-17.98479389502958
4.410725322040706
0.004998819988777207
-19.33500808600586
21.11873147213224
13.40784247781473
-10.81116909203529
-14.16907739769367
-9.912568339237016
-1.564530629780892
25.64617636732944
-17.89622849605726
2.267842962684582
0.3429991086423461
15.28538642207035
-0.09430162885672075
13.53530023575158
-6.496942922242604
7.268365014699565
2.717416922260638
2.537857380518823
-12.5236393308136
13.55068576085785
-1.535908199096738
8.245790524540089
16.64583308043608
-3.772892132096811
-8.336907885678142
15.09093525016584
11.12754413248748
-17.88157150284769
-6.177585370498738
-2.212889504233977
8.827994785840671
-9.646817191433868
5.592044619419206
-6.400343656644643
10.45511621982303
-3.204680562474222
-15.89427483211545
0.7832488171051235
18.31570657676062
-5.078000583984069
-16.71462807898078
6.39420614362174
15.39842251959373
13.99873196311293
19.51970385108212
-0.9158622224703756
-32.6025735917778
-10.13164846168737
7.720783889315005
3.944597915446205
-1.533733342888451
20.78304969655023
0.3960512781960785
-24.38378153723949
-17.59301560610834
-25.30945056121855
19.075395821642
23.82707034795725
-14.32426957859991
15.42082257833235
19.6864966972389
8.553384918554729
-8.755585908563814
12.97072807911107
-12.76852708860631
-8.013696331537478
10.56949819174387
-12.93111640772913
10.37531454792232
-23.70029989450894
7.45276241129399
-9.022095387195169
25.26963287989536
9.275670985760922
8.747042358486198
-18.033197876323
4.555945771760414
2.609620358246938
-10.15763816029205
9.06735993749853
-7.31073914635788
7.519050194695877
-27.39449877355078
1.949320335944962
24.20273329652375
1.242445140062057
1.48315960393089
1.299939358811463
16.37243203752558
-12.78364673362284
-3.129583268822202
-0.4592020349088334
9.143874259433058
-23.35937114373784
14.83134615287429
-0.6158492685683902
9.235547673012279
-11.83330632517057
28.11732354045331
-25.51956488793424
19.22862438470204
-8.630067515142763
-8.201668869093899
-2.396887997857985
18.92249472807336
-19.03835989584285
-0.9342491654292441
1.050114335059383
4.825345757051765
6.957212734078282
8.372393584841324
9.374357350059741
-16.6395650314745
-1.037797974255215
8.303005656815625
-1.879537132279497
29.903798321779
-2.954878336210764
-25.06938285254398
-15.54851219617067
-9.494945876632798
10.15718932749339
14.88626874572392
-0.2396843739623765
-12.12431429826881
12.33126446268972
27.84638349725244
3.203714795057688
-10.72535982554407
-20.3247384666663
12.28431279817487
-6.297471347969409
-4.629025425395101
-1.357816024204409
37.00970087212788
-25.48865443554226
-34.47958858512988
22.95854215053093
0.1893922382926573
-28.48823995032153
-1.104584376103072
29.40343208944122
-16.03946090586134
13.46889060774775
6.784611945622157
-4.214041650984644
13.9885560857509
0.2427633347318523
-17.17257595935669
2.941256542032268
-22.1503928477102
15.40096260622361
9.946508451329533
-3.197078208849571
22.85204573688305
-22.06872881606809
-15.38748862125143
14.60417170068794
0.4082724774107699
6.647813771245875
-23.83859271147194
16.78250646318077
6.136143294035023
-8.364317134348754
-16.807762951655
19.03593679222607
-22.6196042802725
2.183461624970059
20.06304793667773
0.3730947179239951
-6.726559925839129
-11.46502671031582
25.6252107537554
-7.433624117436552
-29.02554518371093
-16.85974934535824
16.96350290507281
28.92179162502448
-21.77859540851228
7.070377355813624
0.6058068361837508
14.10241121670708
13.86571915772764
-20.98487407871643
-20.2753438546332
-11.06060229996605
16.29140521423314
-9.225031062186089
3.994228148013209
13.45632997362818
-18.6114333371543
15.08374076785926
-9.928637403216714
-21.79423526794038
30.67176070260633
-24.85040919305505
15.97288375993864
23.17632239804021
6.987496948372623
-27.68440036369169
-2.479418982760164
-16.77665842665353
-3.754595206530806
12.16322021788189
8.36803341580684
-1.315904568866549
5.194326246026732
6.177371114746419
-7.799010714952294
-0.2015137054088569
13.08999387609741
-27.2127807906031
14.32430062230305
7.132561127254913
-16.28053953305003
18.64157805215639
-17.13501768121037
26.83450185124253
-9.710997107237024
-11.16601330259575
-10.52971431689856
21.68970596828066
24.56886230530423
-10.46985739523039
-0.2332857526987304
13.47972217103682
11.32527170754868
2.697973708843295
-27.50296758672022
-20.85273109316705
8.112388339401894
6.548124460208589
6.192218303571701
4.428279145894905
4.827336273263248
14.39692288230276
-23.65253830190323
-7.841665079784984
-12.38653556514599
2.398994264868757
17.82920638596606
10.44153092422545
0.7780072522231771
-15.81835103340678
4.598812856282994
-33.07680752073636
-1.66841932290022
8.31741148680222
26.42781535169577
-24.2990406756037
3.838119151620075
-12.61588599768377
-16.21404458610125
-1.059061537244741
30.45228427392709
-13.17917815035469
-15.41903287732374
15.87604682238774
-0.5128782891333183
-4.167079978446003
-12.59849777308258
18.38023193454859
15.49224731515027
-3.159234598573988
-1.401054790769089
-10.93195792722847
-6.567145801515693
5.837415896736091
-0.9446301525215187
-4.914877317280578
-0.7076383339630615
5.856222935082902
-0.1884276350052014
-14.56451269266712
15.03990729517195
-12.68350853734694
12.20811393509017
-0.8279120747197083
-7.63572361671805
6.232274964794814
-11.00855247587411
-19.33322201224327
-3.473221646711488
6.592399072910292
-14.26816673475205
-0.3092128109712219
-3.343174966782024
7.891311514733152
13.07613144145804
-17.62426799422689
-0.4463513607415903
18.49965185512608
-18.06312887078192
19.06409588043959
13.22676706249193
-21.83035732198963
-10.4605056205703
-38.00851004091238
0.07221140392788895
20.87669815796901
17.05960047947721
4.422491928287192
-30.68918576733646
-1.898074628999456
28.16476846858931
29.2151016370665
-25.15025376747249
0.3576440589868309
-0.255426928846701
-14.17792838157919
-10.76540780078341
25.19876311573224
-13.32567956601268
-2.63243370788769
18.26884471202306
-2.310731438053578
-26.76868042006952
23.43811595643468
-30.6506758887707
33.98124035345154
11.81738335277746
-5.734313867687793
21.140390522798
-18.4902743063924
-7.647640412083579
-7.474006015222192
15.10914830677711
11.26723575844589
-13.52718197585878
13.91878705399519
-11.65884083607334
-20.09300931143265
11.50494554700508
5.8751047458697
2.712959015423761
-4.956034472899516
20.53892930668318
3.245156103370079
-18.82805093786936
-16.95169789586281
12.45869511914264
-5.118729002290064
9.611731773694734
-9.853452044865756
0.7692497736268636
-3.075429387707039
1.055151442369811
0.9936879867222719
-7.243711952950248
5.194872524092109
2.421754927774098
-5.904562218851289
-13.17014552515015
-17.64434721703083
29.28424184367625
-10.19182626509568
-1.448068360623098
7.031014008390491
1.217265538806158
-7.193128106738576
-19.46332664573349
-12.18814037577533
16.86279233809029
14.78867468408516
-1.712626858788136
8.173846578559749
17.74953850910036
-37.29870751553084
11.37532242807971
4.965259757232806
-3.313766261230592
-9.111510235020084
0.2921043425870078
6.792230203051279
15.06142459406622
-14.11028842744957
-7.743366370531668
1.593649703008847
-7.537211125594558
-15.78828449098311
6.930640777310846
15.46000265267198
-6.602358937606419
23.12631711241827
2.758047407211319
-18.87030384080168
-7.014060678428025
-6.78875720938498
-0.5907064752662106
-13.47326740258974
10.73213460729141
0.7771107353421629
-5.717416564803576
-5.791828779992916
19.02243817316701
-18.39800199042898
23.07925866938521
-23.70369485189021
-6.081051336113338
-12.12995142456385
1.540262584990127
16.67074017749905
-0.2811642101945225
-13.01192252682728
13.27153552201896
17.18976946358415
12.66426494291343
-6.986384335366449
-22.86765008207386
13.11238523161852
-1.799565492031126
21.66868543102954
-32.98150517007433
-14.33796020496998
4.289004425326783
-18.30712136107868
14.03656144041471
-0.01844451628182873
-24.69536199546723
-11.7990776035642
-3.036078569310278
16.62100493661199
-12.82029781781148
-0.7646285527364066
20.65164474046093
-16.4154915879112
8.876232079466641
-8.994984306914906
9.07520538133069
-32.40078780534439
16.84263296500934
10.57880985063789
4.979344989819971
1.706272243819287
-2.569356475547054
0.3741601112154939
0.48892412020645
17.57383887292739
-10.63678327768806
-24.68759526478221
17.75053966962927
-6.407086143754525
9.610273084126289
-17.62769949097014
19.59905904083017
-11.58163263390247
-8.740060024995806
7.682168674632257
-27.61459230516962
28.6724836523636
-7.708130347427908
23.51772699813062
-2.681045107343932
-13.12855154255005
-9.673319727745087
5.698917589974993
-24.21263892808001
28.18704106350185
17.91797702074232
-9.181333597950044
-21.11322061672221
22.14383076971719
-18.21023895909003
6.207513610171763
-25.67641273347681
26.06777931530725
-6.598880192667827
6.535580904278189
-29.93452047815616
7.847384400323087
15.55155517348212
-0.4491438810702521
-0.3900777925227708
0.9124986208917422
-0.07327695866369986
-12.10732149703067
5.721787919514189
7.927841275109686
7.811085369553732
25.16997149201265
14.20618022786818
-19.55730143137997
-19.81885028685256
-2.063328028615436
1.362853616912547
-8.29450989697799
20.27951549831911
-0.280727465041215
-20.01070524614216
9.222289630090764
17.95850420550167
-12.95486049493667
-14.17478731840468
9.171143608508617
-16.55239015486081
-2.244789418469934
24.4409475602875
-5.643767986573843
-8.666214134427516
12.23429116914832
-20.1204671892361
-23.45841748831996
30.48885526602632
-2.746402772192146
-4.284035006109854
-2.635271392175284
-5.052621577522759
-1.6217408222271
9.309633791521327
-1.356274540349265
26.76880781784435
-25.41794625182212
-10.65557160903164
-29.73285978057028
16.93001390160648
-10.11678739345523
-4.911660351983594
-6.268757143292879
13.79586155080062
10.32526119357593
-20.72263569755957
10.3869595936995
-8.888688192949305
20.43976032526614
0.6419278220489977
32.42511753965348
-15.49398187988133
-17.57306348141653
-9.759354887114675
19.85057856450713
-10.09846489182029
-13.04607536401918
28.14045676846073
-3.586095538198033
-10.06391030403159
11.01473444833277
14.89112775881376
-9.861769398238669
-2.410332351277335
-2.61902600492196
-6.404835568283126
-14.33514877065116
21.65878518045904
-0.9188008414690599
9.380876033447878
9.135084322059198
-5.701944521163527
28.88718494422383
5.954998635696183
-29.14023906474962
-24.50834166741715
0.09999841781928827
24.40037428335765
20.08518167903051
0.7804351611680123
-1.533781618542649
-19.331835221488
25.50291902186056
-16.98506276931179
7.102282620230871
-15.62013887126848
-4.059548449837067
13.46972856150949
-4.425294242489065
-4.984885869614585
16.67922241576449
5.94961939482419
-10.35495652611866
-12.27388528566558
-4.098674356722755
6.488453014176989
15.12841114044994
-17.51818979777614
12.45026524031771
-10.79693203875755
22.33734258133111
-23.99067578280075
-0.0259410878333778
-0.03284380083548924
15.59985119477231
-15.54106630573257
3.171085213204701
5.896658347320303
1.664391046503671
0.09022725548017538
-20.17026681898637
20.01682496253443
0.06321460104926947
21.67514037636413
12.87884528192286
-22.71880237152188
-11.83518328537828
-8.407140557554273
-7.617664990831821
-2.016951458904924
18.0417570073705
-6.398838532228467
25.12764599181198
-15.68208766044211
-3.046719797591445
-11.34053865141402
30.61525178695139
-11.36840245755742
-7.906310676371373
16.15124957869112
-15.22346717537953
0.7686621248227508
-1.696444526731936
-1.913001423402293
-1.329845099392613
19.39409610241946
15.91506568599515
-22.09993073257677
-13.10019427120891
19.28505931773531
19.11803342723201
7.120284635448902
-23.68877536691606
-2.549542694960911
2.987840122803095
-20.02199489656033
17.02314582479366
14.28738159354265
-16.62004196457549
10.63816475670939
-8.30550438400855
22.33557545546156
-0.6528786424324082
-22.31544201456349
0.6327452016462723
-19.02235993517656
19.92562471062269
-2.816266197715281
1.522727109271914
-17.8689841363011
15.90107016051083
0.4451868659395032
16.70188227348322
9.202357462294453
-8.915404494921845
-13.15740287800183
13.14117126238471
-0.002482487844078447
-18.65081367024418
5.607671933555436
15.02462104053835
-1.981479303742147
18.00017143533245
-7.660858914857617
-10.42004403280891
-9.654020862206346
12.82701270391278
10.36312853671673
-27.62743454031964
-3.232125235913299
2.809252144006987
28.05030763592606
0.03551183370578256
-18.52302852290018
18.4772478144301
14.97748781445176
-26.40019765240229
16.78562942860765
-5.362919590392503
5.569081194243715
-5.46550820403279
-15.04035891441763
14.93678592532243
20.06904093095018
15.11907563995359
-14.90860107240375
5.779224240909911
1.72021805838178
8.694254567452177
-24.79692386994416
35.66309898794451
-2.844234174768115
-8.021940941519203
-14.67269939183237
35.69640246093334
-32.5124119221457
11.48870885318702
1.206610336972951
-21.69011043609864
2.995145177821443
17.48835492158667
-13.55449227739265
-9.096733266656319
30.73987863844385
-8.088653095154209
8.721152492465707
8.037987842204911
9.209773840882464
8.132978430950308
-17.3711925117987
-1.445818511990521
-27.36871290079138
29.41072092268111
-0.5961895097219023
21.77010741547597
-0.1914804823101231
-21.58667299960588
-19.97919135441166
14.19329308113854
6.47180511405731
-0.685906846011191
21.05423686834474
-20.36186695419193
-11.67496408093755
10.98259416679694
-17.90138098915135
-15.28150956056204
20.10065676994852
13.08223377982087
-13.93086336180998
8.622270018712614
-14.81913061012698
20.12772395318813
9.948100912955395
-21.57310209775987
7.779416749326587
10.28967790915275
-12.24542219682336
-5.823672461382144
2.355156865531398
7.881762638492009
-25.58846173825249
4.919931135841752
1.208564787404302
19.45996581332639
3.826120715525893
-19.28118027991517
-5.647803502427764
21.10286306619997
-12.55985085550586
13.16166248290707
-15.13379512984302
14.53198350359363
12.25498828363677
-12.15602727102744
8.671853036271536
-8.770814047405839
-14.81489588595724
-5.572644870537145
6.225717013332663
14.16182374423518
-11.70085352213754
7.360529566140961
27.46664106872313
-1.650287117000081
-24.79389602317317
2.441653997872015
24.00252914318973
-15.40971015888798
-0.0123348304091743
15.40005939270034
-1.378276593099145
13.36310121219635
-11.99411889631577
-26.43308520222484
22.4265443852793
-1.089400910014949
5.095941727205428
-17.19518483722679
0.5994701728859546
17.39600486616931
-0.8002902009481146
-20.89379678408787
-0.004240758519177707
10.78265877971644
29.20261915449426
12.42387698074926
-25.61233264405258
-16.01416348955187
10.31471914581232
8.742013003350257
-15.68034891222788
-18.37457607186836
10.75028155505639
23.30464342969071
13.47624521941194
-15.9078431230211
10.21101465325145
28.03370764487928
-22.27621951037692
-20.24619924350347
14.48871110921267
-17.58665071354613
-10.13038327291498
14.36882577972711
13.34820820470257
9.521109308332226
-22.21158603396328
-2.989872185565011
-10.32242394776696
-6.383286755265942
16.69298174841265
-12.74226761582828
14.90559225770375
15.57311060494067
-17.73643524833431
0.3687993943315881
-0.1333552521270215
18.62551100480935
-18.86095514681085
-18.6272636363439
-0.03596327441322626
18.62006341361487
-1.295159835070439
-14.89518975871194
25.71145890324392
18.73526901490757
-7.362615551005605
-12.6678132973198
-14.99779823259566
11.45432576995239
30.26147136637871
-22.98052811878791
-18.33514787157227
-8.556614777400268
11.99657289082371
-8.742379295918569
1.841250696750989
-7.061797652115938
13.96292625134299
-21.37613720022904
10.77253884865702
10.58774104895605
18.51450206488329
-5.810771434978659
8.036669745805634
-20.74040037540809
7.560812648168334
34.49391013858691
-3.078757304583542
-38.97596548621754
-0.9958132780759037
-3.374441635823215
16.88547861214774
0.8008342003693448
-14.31187117618074
6.113318648655577
-2.449513158130839
15.87956895935173
-19.54337445121289
-15.75072767068575
31.83688813293968
-2.13374167113202
-13.95241879105647
0.7400249522703113
-0.7522238323513394
31.15291589946388
-31.14071701621749
9.587524938955356
-0.5432447161551363
11.38657517191992
1.730305742618033
1.701608272987129
-14.81848918677972
-3.948420170947685
3.270666583852424
6.533976521123551
-15.5995352716914
18.66678459870052
-1.321224860898721
-1.746024462387452
-20.56681866155813
22.44178284096248
-5.706619324187598
18.49811255105199
-19.53334406175715
6.741850835604777
-1.444533566283178
7.083638328528278
0.5282024881505977
31.10445119117896
-3.121134783598847
-28.51151888964672
-12.25080866970348
1.013671022162993
13.6004076731969
-1.057337411024921
15.18898455120045
-27.73205481007959
-25.1313580528679
10.75458059562189
1.943957243760412
12.43282021742958
-6.846445778089127
-0.2908016416672354
-8.649570980261458
-9.705704413072922
3.849769936850455
19.80769224617976
-4.267150265785934
-29.49967892258869
-10.97177954150898
10.81702432189047
-0.2012916282139714
-17.1663941056089
38.84008303117636
-21.47239729630233
-33.25007508555894
17.80032693319625
-1.967567644146838
17.4173157963456
-0.08635004365885636
-20.27997265701389
0.1973900449529067
20.16893265587643
12.85187892116337
-34.80784671959013
12.71705927064911
9.238908529265135
-17.61975022049247
6.088799842881695
-15.30236791202852
15.26109399656945
11.49415931002842
21.93256251153627
-25.97701941542118
-7.449702405537563
0.225200265017974
-22.75831358242076
-0.06326683896397949
22.5963801568947
-9.74263030308364
25.24958662208774
-26.13655898622672
10.62960266735061
2.840939999670221
-15.31550575979952
4.686695297327571
7.787870464650029
1.5236685160798
31.16349713588133
-21.19300634156902
11.98500554210386
-11.28331567827332
-6.559467455598537
5.857777591964954
-5.651331435670964
-4.099989187113028
24.54198652888878
-14.79066590616957
-35.51451829955791
5.714397402415736
2.519835825630462
27.28028507179943
9.342367063933009
19.36449079077374
-9.311106896935081
21.89332814117123
17.96254610011377
-25.63625264855133
-14.21962159397622
15.14193494905088
-15.48994309342097
-5.244340089196701
5.592348233604493
-11.40177041631772
21.34315370398277
-9.953169676185128
27.98404907288211
-22.97498103307709
-21.60791743191431
16.59884940172774
4.90592381353183
-18.98193096946818
12.44386259265718
1.632144563407031
-1.022451397486751
23.97938767176335
4.14583950677745
-27.10277578088288
2.154708217158364
39.63152970844259
-14.90407953124992
-26.88215840082941
-0.3064667659358623
3.044002667156196
29.01158050411201
-31.74911640034048
6.596671256076132
2.738432389178846
-14.68090332324457
5.345799678079804
-4.847636601076784
15.15027093666354
-2.14120531273562
-8.161429013566002
-16.0185242302035
-9.737690691282786
3.539659748966759
22.21655517220157
4.727549038932352
-19.67604678213591
-5.456539653787049
20.40503739693809
6.883613032852756
14.07231681062523
1.066815289498953
5.352137630298829
-8.482280950305372
8.662774135950517
10.8743746890891
-0.6997519648594328
-18.83739685907445
-0.5416345641352669
5.43240951263224
-6.603401807622777
10.53182282490044
2.934794343596282
24.46310413939489
-16.01354458993889
-12.50530348127117
4.055743931565421
0.6225832162109903
-0.533329443926429
-23.53497646144483
23.44572269117369
-2.663526263431589
11.09520331631662
-13.07093129709953
4.639254246486606
-10.17509584629483
34.50170051839815
-2.651464294779079
3.986671757338335
7.642283959685487
0.07923025469819908
-0.08429854649800535
0.5777632496569395
-0.5726949638005102
11.61740977346094
3.635820988157618
2.862859782475085
11.15092201709574
-0.1442457363607519
-1.394944506253209
19.3728789265486
4.892095728077675
0.2547712272747668
-24.51974588931758
2.824223562504154
-7.42860260727057
33.09255563614535
-28.48817659665693
-4.961986513993211
-17.15877242829524
1.072887780287311
2.719785902763526
13.36609874595654
16.98465553326569
-0.8518854194776302
-16.14798918696807
3.550347380106092
-17.67092388872402
20.86377174997324
-6.743195238688718
-14.88412363357612
17.22935774826144
16.52539286608702
-18.87062697984864
-41.68993443652867
-10.39168674368705
24.4730906413403
27.60853054032372
16.45894552070719
4.601640353730788
-20.69822579157278
-0.3623600770816114
-37.2043766349815
27.83289116567262
9.622103804724032
-0.2506183471697773
20.17823039813146
-4.177950936671183
-25.05539068342357
9.055111222233998
16.98323279699586
18.82845368495744
-19.35274094986251
-12.03478418968164
4.927417456064644
-11.37334977153056
18.48071650543264
4.288922143690935
-3.635415955404634
-1.745497178258
1.091990977680553
-34.25863359026785
37.46405625929714
1.391805621357051
-4.597228290550449
28.94146918119756
-21.61034653377128
17.29510518282371
-24.62622782964138
-15.19370624644152
7.561880323094838
24.61505872574706
9.928920773354127
-16.27076194289014
13.53360873646019
-7.191767566732191
3.417067834394704
-27.04975673156557
16.77364320062217
6.85904569545431
4.783846305655338
-3.716009100010545
-14.02200489790116
12.95416769167597
-12.21265998395234
1.620594092114255
18.9028048021048
-2.63763187797417
-24.03808723766127
7.772914313433535
-6.965643029705332
-20.23995687007144
0.1519577685224008
27.05364213156958
7.399924127851436
20.62524288180202
-9.122362206575799
-14.30290299199961
1.977082815463972
12.30147709805094
17.6082031491323
-18.52198502122677
7.422864194500362
-6.509082321819736
-23.96839048447655
15.71630309780164
13.29431864093846
-5.042231254483444
-3.665965117650314
3.073434681967334
-19.23180146200993
19.82433189847389
0.6776282567891082
-12.15264291324981
6.610550663581883
4.864463993164801
-15.66649157263899
6.518286919388077
10.5139487898756
-1.365744136631649
-14.44385882639424
23.81009302313427
10.00664472844732
-10.07559669307713
28.01132261745158
-9.507844400251377
-8.427881523977833
-5.256540135049899
3.993857324091034
24.45687527831367
-23.19419246629849
-32.09075356126295
8.296291534413459
20.63936321637932
3.155098810551824
-24.31369771720261
0.169001989539117
-10.18067085359782
34.32536658335275
27.5538015090676
14.91402477654952
-14.44210473746249
-28.02572154709691
-1.582217041359046
-7.635895403830154
21.53596148167444
-12.31784903716971
-9.494288902322852
31.49854173582159
-21.37414093066755
-0.6301119026589637
11.74865238231395
15.50186851345108
0.02238730842138899
-27.27290820254261
1.667274875125931
-23.39353289893186
-1.579254336055053
23.30551236000105
16.128667889756
-13.27373643230255
-18.7492062897876
-0.4613609582923405
14.11573739788709
-13.68032268613372
-22.11359846146751
10.96577673203184
11.13957191025925
12.1070493538223
-22.58477409375199
-7.743555754830806
18.22128049654497
-16.6592808650702
13.83091707138152
2.816789458959456
-9.044678747471618
12.43034489482984
18.03924311341992
-21.42490925868909
-15.98697611865586
-2.820705396920314
17.4778364177304
0.8138787252437114
11.90688629573012
-24.29304286838897
11.57227784782176
-17.61332379215632
12.71832464627509
-11.09197697135495
-2.976552190196895
1.218208644564519
-18.40846297307077
20.16680652008865
5.816163150449502
11.84367219899854
12.95785081744401
-30.61768616585796
18.7257199089862
-2.153645679105523
-8.159871254475879
-8.412202976900584
7.48716695631107
-2.472456747079586
-21.37412834992914
16.35941814073849
8.922087033804612
-28.64755448547916
10.68078870567246
-4.758621755422553
-13.02935544794444
-2.746382926553804
20.53436013232477
-7.977552968051479
19.10216268877112
1.870452722974475
-12.99506244321603
3.028543778933627
13.82550681036857
2.053415884783765
3.910907501371155
-23.33578381656579
15.1578807508745
4.266995564765451
18.83313915523588
-14.9446604115685
1.447310985411896
-5.33578972911236
-14.44278460598346
1.118115094081421
-2.035415550437943
15.36008505358408
17.37187817139345
5.830340918553861
-19.04672471409659
-4.155494375307537
2.567693111968651
5.104412928663558
14.4726515206509
-22.14475756215654
20.66206691831732
0.2185276483285044
-25.41106929973477
4.530474718741059
29.343719545718
-18.67196585319665
17.9206926669297
-28.59244636173105
4.630289075125732
11.33443473028817
1.79101100052166
-29.92559142299465
-3.210342761549814
20.43168750496658
12.70424668207504
-4.130854022282801
0.3390146048489201
19.22305430493471
-15.43121488734772
6.892135539399171
9.340448243837548
4.860546195865199
-21.09312997867994
12.16039145040389
-7.034511515113574
-18.06249852742996
12.93661859335627
-18.50152449762382
10.04766211110014
16.11264373860833
-7.658781351845157
-18.55384736496297
19.89498193178485
9.110656131299571
-10.45179069840941
-7.887745366984977
25.41690044408383
-0.4621880889846045
-17.06696698891999
-21.02612671765149
-3.319576673978065
22.74321400979467
1.60248938248944
-2.321606894567485
19.27109772693223
2.832100571641056
-22.32283244054362
-6.867762699606231
3.602133399731502
-26.86973523056768
26.18478542083606
-13.7589090191301
0.9230303471941713
-41.79971015214237
6.891536192627939
-18.68348889481868
34.54723398430452
-22.7552812818637
17.66986929645368
-41.63902891373595
-13.67686679116472
37.64602640887238
26.43234411665286
-3.63078915982865
-22.37231636141134
-0.4292385950517397
4.288674991472305
-1.423736588325918
27.68515500798381
-30.55009341067455
24.22694729423356
-26.38512668266483
-1.136922255600956
3.295101644136193
15.50955814720314
-12.54347661343432
-24.23268375774938
21.26660223021223
-5.586230004702654
-12.91084251805006
14.28263066266041
4.214441860098515
33.31533931719893
-16.97476218888874
-19.72083825741849
3.380261124078439
-11.44322380544648
1.597312297399688
12.46229464976708
-2.616383143386381
8.016055561000778
9.705177519869114
0.06937126576040417
-6.289767808994989
-9.825678218984818
30.85067466499904
-14.73522863674145
9.917573642410286
-20.29511332574707
9.012660539435016
1.364879143805986
-19.45291898577948
25.22098922599179
3.48610649854247
-9.254176739635673
14.27984210779547
20.45954739034831
0.8045986600734313
-35.54398815844354
-27.15490403387286
-8.609791272980029
-11.58037556040282
47.3450708713471
37.68246472180481
-11.23905659067047
2.562670317473475
-29.00607844700954
15.65174824889256
-36.01124008227671
-8.409197890118444
28.76868972429011
21.3728814258304
-12.44705352055445
6.233172322185565
-15.15900022674685
-20.18603684825112
0.06766879867565991
-3.036316594648347
23.15468464496398
-21.25779058320535
0.115963381138577
7.449751254927093
13.69207594764266
-10.90751746630845
-20.11589738270903
18.82151632715269
12.20189852433058
14.008336815213
0.2855428602697717
-14.30553045362686
-14.44609666178666
18.7561285303479
33.37243285271585
-18.13918865962865
25.99515729202021
19.36500012793681
-27.22096873838459
18.98479112398283
-0.2035102518006916
0.2828150083660571
-10.58655494131189
-9.62224071987319
2.469474741630103
-22.97880456708471
-6.645574207092475
-21.12900458733656
10.53657556477802
-0.3150884427548763
3.498574942968309
14.94286023817362
-17.23482484362039
36.91287157823517
-16.93727817855216
-15.05643632436156
-4.919157068427031
-4.187192376787771
10.83902265065659
-26.76772765509572
14.18993830139078
3.806006485615864
1.722063361531181
-19.71800814716554
1.252505074515514
8.809261556301438
10.57892984633078
-20.6406964815349
2.247841701096727
-3.663290799458306
0.5346897821748315
0.8807593170280626
6.383885026496863
13.00247077689374
-1.263647353554153
8.738295753596745
7.942007733905877
-0.3078714499820154
-3.659869702556502
-6.69815119140095
20.14092822126021
-9.782907328558888
-42.53493641070704
9.452995002564679
14.94275276065081
1.632115596478349
-19.66162026455882
0.9520301182132987
17.07747455369632
-10.7981649764663
20.92308843581684
2.349761383439691
-12.4746848444118
26.91687912520745
11.4864765962742
11.19594094886161
-49.59929666804621
11.33104095725507
5.458929623039666
-15.80521669788941
-0.9847538825040365
-23.52498836467029
-5.903534615814234
1.352210377251362
28.07631260448671
1.176834357653794
0.6044791355831456
-25.30630185682982
-15.3202523402193
-5.513823340879073
-8.003402832857603
15.40009775265258
-15.9303098428461
2.16232769112178
16.27773033052223
2.750858852635576
0.8774226312518142
-19.90601181476466
38.52825661898279
-20.79350233105
3.570610588341358
-21.30536487612894
20.39868316631964
-27.1875490660457
6.77902499713031
-9.088402544450114
29.65771024799115
-1.477817032776394
-19.09149067060771
-17.32411656246915
-5.424413169770095
14.93734404052712
7.811185692217085
6.825224617450582
-6.791619500674305
-2.593357347137782