/*--------------------------------*- C++ -*----------------------------------*\
| =========                 |                                                 |
| \\      /  F ield         | OpenFOAM: The Open Source CFD Toolbox           |
|  \\    /   O peration     | Version:  v1906                                 |
|   \\  /    A nd           | Web:      www.OpenFOAM.com                      |
|    \\/     M anipulation  |                                                 |
\*---------------------------------------------------------------------------*/
FoamFile
{
    version     2.0;
    format      ascii;
    class       volVectorField;
    location    "2.2";
    object      vorticity;
}
// * * * * * * * * * * * * * * * * * * * * * * * * * * * * * * * * * * * * * //

dimensions      [0 0 -1 0 0 0 0];


internalField   nonuniform List<vector> 
19632
(
(-0.01598855920163526 0.004001859170994103 0.009695049805570271)
(0.00028254958977161 -0.001032012668135399 -0.001239621188313007)
(0.009378809763470537 -0.01905347904356179 0.007366529950105088)
(0.002772066100732903 0.00066679638506623 0.00172144009636537)
(0.008543332444751073 -0.002557111001213385 -0.003539541189767879)
(9.378318181047234e-05 0.008757338716030388 -0.006569357174570164)
(0.004825070617385246 0.001110065602221731 0.008275997385222701)
(-0.0005296613434970293 0.0005709573239292721 0.001917845796320497)
(-0.001751508775729779 0.001079737509351581 -0.001884955763351332)
(-0.008492445686670918 -0.003622571117357636 0.003398201135952148)
(0.01877237517126966 0.002824660694980961 -0.02182417972094053)
(0.002955826279084306 0.005558298211292638 -0.0003203650774892858)
(0.006549188401344632 0.002422947911902014 0.002233586942768343)
(-0.006281430114648 -0.002163995904718699 -0.0008320955056270369)
(0.0001013613932704339 -0.001427646162464269 0.0004317685680241487)
(-0.002287586916301671 -0.001842039872356493 -0.0004328174324839257)
(-0.003501246687089189 -0.001816027196903451 0.001914344011201248)
(0.0008209733301493789 -0.0004338888753848704 -0.001561012308529662)
(1.5654716066991e-05 -0.001501225021547757 -0.002510579968836897)
(0.005358310735313447 -0.001407960601426431 0.001302028996255171)
(0.005841339250618345 -0.003375182809983075 -0.002409926240421499)
(0.002093218452756744 -0.002840138621353923 -0.002317219103144365)
(-0.0005954635937816216 -0.002556986573761495 -0.03720469187304215)
(-0.0007196464384193035 0.0004741433260646837 0.0003111294359999562)
(0.0001241838301557625 -0.0003689315344526543 -9.420422896251656e-05)
(0.004532326354142969 -0.003052673461681981 -0.006401119515774794)
(0.003129022114591285 0.01052254847043124 0.006005080983688364)
(-0.003724139092655841 0.001065587170764161 0.002756943213803088)
(-0.009349121791770672 0.006162773752448858 0.0002563112315859364)
(-0.001155001678979047 -0.001360626379234158 0.0005435867811524459)
(0.0115925032555479 -0.003076161553487745 -0.00137127280646074)
(-0.006347750954315001 -0.003546694903478352 0.0003905380397014078)
(0.001507216714298174 -0.002472648724022795 0.00018194532689896)
(-0.001520454057929544 -0.003247479301619214 -0.0001600180874345356)
(0.0004489861761500474 0.0006005724129144665 0.000962883118407386)
(0.03678982950915154 0.00572926620073648 -0.003304880649811041)
(-0.001235663536421914 -0.0005501673869295702 0.004294495293052564)
(0.02777613232056437 -0.001070072589381129 -0.0007918973571910282)
(-0.006269915511486601 -0.00201112302188929 -0.00642442312779606)
(0.003954402360824855 -0.003224522706629681 0.006817794277986918)
(-0.0007358675963827031 -0.002364648557555704 0.0007154039474456403)
(0.02627334249846126 -0.03669251685750458 0.01078792154187311)
(-0.003412270361668188 0.005633585184436689 -0.003566796822023023)
(0.004160118041610631 -0.000156011726674319 0.000159567808949154)
(0.0001247941900079508 0.0001884887751406052 -5.267533706593833e-05)
(0.0009856689901252028 0.001009115443396463 -0.002748079465006816)
(-0.06947899341101443 0.0220957347436971 -0.04075264480235345)
(0.03388541090280039 0.01050724854705149 -0.008768659411350525)
(0.009178138892801498 -0.007922366373895075 -0.01438586881854123)
(0.001840326879131658 -0.002615525095442341 -0.0004403793057305557)
(-0.02732104995786023 -0.01594125078415488 0.009531869406699095)
(-0.04928304269560793 -0.05622261379107056 0.04462327248849637)
(0.009896034801872469 0.0003853476230895911 -0.005770804785412661)
(0.00287592364221737 -0.00282853234330045 0.0006036607283098462)
(-0.007816794347855852 -0.007002691371291253 -0.0003767103231078982)
(-0.01096392153138746 -0.01858671624866189 -0.006403013689703134)
(0.001033844258241022 -0.00222435144045906 0.003205652057258737)
(0.004398816144402774 0.006727639323107443 0.0111685581941018)
(-0.005193529926437954 -0.01365193146406149 0.01517608583339674)
(-0.003270837367874438 -0.000672347234786898 0.001674201561433185)
(0.001634519532591523 -0.0004424319933008728 -0.0002255352756871522)
(-0.01197046353732009 -0.006545672939961006 -0.01372286034265684)
(-0.000929708204333503 -0.001181558421717829 -0.0005809756553955971)
(0.002329829946588685 0.003379171045384478 0.0003965532481371564)
(-0.00318618489201192 0.003329280949128428 0.004850609847534939)
(-0.0001349806520337862 -5.371283204842764e-05 0.001829521415419811)
(0.001306948727822038 -0.000806578358614078 0.001242297740111054)
(0.0093202145259659 0.00728697841106002 0.001090899082983636)
(0.03316810704662967 -0.01956725622448441 -0.02493364366829244)
(-0.02271539217049296 0.006102956546113424 0.0167436603559545)
(-2.856661184914933e-05 0.0001022863380174368 4.947238157111123e-06)
(0.006880528599148493 -0.001630345688322362 0.005516673694621295)
(-0.002806687211148501 0.01930565050924902 -0.0145206648663387)
(-0.004362784396557851 0.002811234438369003 -0.002470770910191383)
(-0.001499365046866981 0.001851160741105092 -0.00112913539794746)
(0.005055105730679721 -0.01351929084694001 0.00468029680012993)
(0.01770471687399196 -0.0178805742423583 0.005745375065961209)
(0.1034569305838573 -0.07299752263390327 0.01657705993531384)
(0.0008230609648922998 0.000430429998951998 -0.00089887768565773)
(0.005007179442122227 4.136637594934038e-05 -0.001475878889701337)
(0.008627898049439899 -0.002548553816618121 0.01371539707368654)
(-0.007438607336914097 0.009588343113767134 -2.608075587445238e-05)
(0.004531568626955826 -0.002448034069386254 -0.0007212833081802591)
(-0.002572857739673657 -0.003175961355617086 0.002466493639816952)
(-0.002308175193186533 0.003626554741014571 -0.001538407495016466)
(0.01485765539377327 -0.001395875634851714 0.002303119717488562)
(0.006690197181571751 0.007325535122822882 0.0003089799534492796)
(-0.07867177631258773 0.004228785752448483 0.001032365302664735)
(-0.005728601836554072 -0.002332202867636525 0.007345058675701363)
(0.004976311631568803 0.002598643712729423 -0.001474940521493893)
(-0.01220237741991449 0.0004390910734057198 -0.009372858155076595)
(0.008132098278263653 -0.006613310803517913 0.006839423610101186)
(-0.002640009001595299 -0.001209954204832912 0.0003717938625493773)
(0.0100879966721165 -0.008302813077237705 0.01762594454494232)
(0.001507933554040373 -0.01866335528268183 0.006409608186345479)
(-0.003698251079866986 0.006724599417222306 0.004000646016300105)
(-0.001455665214618003 0.004073872805975124 0.008474579536573483)
(-0.03090214215121691 0.00267441463484733 -0.01457695921805814)
(-0.001160813573104224 0.004359985190552878 -0.0007274505253033431)
(-0.02124638485613804 0.01910193344391328 0.002188783647289097)
(0.001721660636088682 0.003389893855686223 -0.002033086015217082)
(-0.003798841266876623 0.008344605489104791 -0.004023052835158416)
(0.001327012518795492 -0.0009936347436937814 -0.0004262038951788942)
(0.001453133025203055 -0.0006758030932775272 0.0004155038580396095)
(-0.003378241830157367 -0.0001331843810840998 -0.002814555963076226)
(0.01941907056002581 0.00653912319507008 -0.02073763330440299)
(-0.0002071479332060213 -0.0001359175597312759 7.204580488624727e-05)
(-0.01420631580410791 -0.01163938739307544 0.0008544144893813696)
(-0.0005128127546242235 -0.001783362021100892 -0.0003581433979684533)
(0.01747762171200286 0.002698468361866927 -0.01227022904274058)
(0.00522283749012878 0.0006480667113324774 -0.007211904844929143)
(0.0005295571259603827 -0.006199064838371054 -0.002198126608462163)
(-0.03138275915740963 0.001305179506904349 -0.001980820843982923)
(-0.007739673175974286 0.000149697139307597 -0.003848619721563381)
(-0.02463908511510013 -0.0107948838455008 0.007093729180010646)
(0.0127499907855463 -0.004169284976777143 -0.007584482313870193)
(-0.01506276386453981 0.01279520511378659 -0.007251019631831702)
(0.003805420707766152 0.00766408478553739 -0.001292425354203111)
(-0.01192533466985243 0.008227480245247784 -0.009877741022147845)
(0.00401654622238122 -0.0007847586625554025 0.004303532353971211)
(-0.01436215139768691 0.007789117674687689 0.0008647575672660005)
(-0.01912017460580035 -0.000386424723006248 0.00418384523548383)
(-0.000445073121573043 0.0002330920815964418 -0.000513649617332576)
(-0.0232244072541404 -0.003781249028282906 -0.001149721949037344)
(-0.002228690141675762 -0.004752845608524613 -0.001367375145927259)
(0.0008716057386174719 -0.002441608594066621 6.966992993055635e-05)
(-0.02309054220280355 -0.009281985713324998 -0.008161819853928678)
(0.003609219860181216 0.000188113192392019 -0.0009737239043639868)
(0.01474735652986295 -0.005736448708995302 -0.007574479686844335)
(-0.006057293095226373 -0.0007256334574379645 -0.002275417971201239)
(-0.002776095342065033 0.0001013229615215207 -0.002574563182133506)
(-0.007769717487155308 -0.01894496798894777 -0.004611878385815836)
(-0.00125352586277351 -0.000875287081257369 -0.001217114601483842)
(-0.05518974321451502 0.001533735008760619 0.06532849970129201)
(-0.001719293995624611 -0.003264521779086766 0.00278452512385547)
(0.002161869682529412 -0.0008494928978325496 -0.00408825606156725)
(-0.01965372403272473 -0.0005057299529091456 -0.003255031153487352)
(-0.003072163902639979 0.004577489243911214 0.002578004169572972)
(0.001107464136126771 -1.512106631715917e-05 0.001434170884793991)
(-0.001387255261976059 -0.002011305311477537 -7.555072367296584e-05)
(0.005187164052873762 -0.0004603949608916204 0.003564472731486833)
(0.001847449407025649 -0.0009311356262349428 -0.008655800035640938)
(0.0048696750895093 0.01165161926436519 0.005278488230792526)
(-0.02170519845210581 -0.1174177712123679 0.003081673148912282)
(-0.0099264190704344 0.009874392637031496 0.009984486939785235)
(0.02244486448278237 0.01924664591674403 -0.01088416906542407)
(0.009177184381909745 -0.02145649558792826 0.000472306848328122)
(-0.0006538037453028726 0.003624735336096433 -0.0006037679471961896)
(0.0009291450074277996 0.0005907641416030586 -0.0002052942617065182)
(0.002072484676539711 -0.001640960160590943 0.002100262977008699)
(-0.02595415395201814 -0.001073364600517069 -0.007244522895602365)
(0.003294793030827034 -0.005794230583228309 -0.0016827315090022)
(0.0001955058571150922 -0.001578326441578259 0.00142686014020339)
(0.0009581556099621399 -0.0008133461902695225 0.0006632793713844186)
(-0.019179513125158 -0.009379155903126048 -0.01831953401488602)
(0.01204092681512524 0.001842925999654291 -0.0003624456413653689)
(-0.04905617497273849 0.01692031448785219 -0.003019476419185055)
(-0.001650681986287359 -6.587076551582607e-05 -0.0006362624333727889)
(0.01010027535168628 0.00391023365783725 0.002225547089256888)
(-0.01133084817835434 -0.002984746505934346 0.001452223372282232)
(-0.008222359808977085 -0.0107308125891963 -0.00362702993306868)
(0.008678184051817202 0.003122282193646518 -0.001175353197855493)
(0.00351934926694013 -0.00100484859170108 -0.0001549013142995936)
(-0.01051497000646043 0.001288739219773668 0.005360262243150208)
(-0.01423322861688149 -0.0002279821173567353 0.006448896145010349)
(0.007196274034239315 0.00678505017137107 0.0006693890912105684)
(0.01587568422123875 -7.319377870050343e-05 -0.004684294340884083)
(0.005265316892298368 0.0007000656085863032 -0.003244761766377173)
(0.006035122420710338 0.003271717980255551 2.559711932758214e-05)
(0.004820385549166643 0.003469470069964476 0.0006331759843902799)
(0.004291849878053079 0.02034300417595198 -0.002497515220839744)
(0.02528010849168795 -0.002753011384771189 -0.007353649596005255)
(0.0006247261769165378 -0.00349187495599763 -0.001119454472447504)
(-0.00234640994179656 -0.002391283148404001 0.04337220384832409)
(0.001913001643314318 0.001066520707000359 0.00194415983391772)
(-0.01055666643340495 -0.002646047157133233 -0.004399637388253298)
(-0.0057970101188862 0.003009940322139304 -0.0009045064282875814)
(0.004299016576338505 0.007483081154615471 0.005602862768254243)
(0.04593265474060648 0.002196002475629941 0.02083462098367541)
(0.0003660096306625913 -0.001772934723582954 -0.0006372783864664565)
(0.007971069883727738 -0.0002083692071148955 -0.008021413431429595)
(-0.004816992318011388 0.0005476120589897721 -0.005087332385251844)
(-0.0004584784655951632 -0.00122273311746015 -0.0006175710717912454)
(0.002509644986933675 0.001185607622759035 -0.0009079213843320804)
(-0.0003509192639221971 0.00405397305715791 -0.004050909855086794)
(0.0007386664992403577 -0.0001094978723681806 -7.671147972316801e-06)
(0.001329246195579815 0.00155664535803043 0.000325948092818298)
(0.004548972117451039 0.008610484020060897 -0.01431267069341744)
(-0.0003398993199816493 -0.006722206388383803 -0.001619820926673512)
(0.02044611373961999 0.002429394977846783 -0.007440508710483219)
(-0.006836790950134467 -0.0003681661465510808 0.005877057406254957)
(0.004146927317668579 0.0006383881673936126 -0.005829830437772231)
(-0.0005094729433126521 -7.292060857788565e-05 -0.00177286687780148)
(-0.0001063895553579477 0.0006228903639333796 0.0001647313250399656)
(0.002518026463818553 -0.003255983120395217 0.00186220061341974)
(-0.0009927208449222169 -0.005940246840179453 0.001753166673513404)
(0.004241648445760083 -0.004047638000146042 9.709865196549503e-05)
(-0.0006282480348600182 -0.0003644636986972452 -0.0004301865380003376)
(-0.03875101334897486 -0.002159430877349158 0.02519480084246833)
(-0.001858327508006516 -4.538494538553655e-05 0.0005102816376768635)
(-0.01864337968829284 -0.003293634639673562 0.00215326069948565)
(0.0009086713149900122 0.0001910484200513113 -0.0007392545230778336)
(0.00323051531674448 0.003550109932786333 0.01500073923796593)
(-0.008996312218427151 -0.01222011451915071 0.01534589824853458)
(0.09593228495471647 0.004075534785949991 -0.02768435968112028)
(7.806662309989385e-05 -0.0001650710367542332 -0.0006693179848385357)
(0.09188260652221714 -0.04186929516912041 -0.3824229369940974)
(0.001284319220888823 -0.008409063931978957 0.01343286396540561)
(0.0633197885393563 0.003587011363959633 -0.02921223066604415)
(0.03947220745570802 0.02556387411568661 -0.01782298842856226)
(0.0006959124584614367 0.001299047666524128 0.0007162997575615823)
(-0.001129619211231551 0.08230492850255647 -0.01469881985895363)
(-0.01257078342966456 0.00401789477665932 0.02574167874753303)
(-0.00173861761114359 -0.0001633734711013238 -0.01010965754288971)
(-0.002536097724437172 -0.0002064437832680196 -0.002834033311270519)
(-0.009659565171048609 0.009378904851358214 0.005498136028712776)
(-0.008994341459900282 -0.005781087563251621 0.002571003210951023)
(0.003055334482474406 0.002149158174182006 5.396183569987301e-05)
(-0.03826159904195049 0.01466490717832607 -0.003144674013562776)
(0.05061303566256635 0.0326708201729406 0.0265053327102358)
(0.005842191045107183 0.0006079326555210776 -0.0003594527139558227)
(0.109251033600418 -0.06824949949510897 -0.001700351828622626)
(0.001147976640743578 0.001612607455049996 -0.003056990444070248)
(-0.01392752416879777 -0.007824253109390064 0.002108483146255054)
(0.006807802190247036 -0.00647865854431079 0.002553762189750909)
(-0.0005543678753154696 0.0004116961384227062 0.0004308524184733145)
(0.01137511135121675 0.00311057065640153 0.01280826178400928)
(0.02860304577566761 -0.01174880222178678 0.00684902654407814)
(0.01379308317119675 0.005643254186795931 -0.01666428576786027)
(-0.0003278213165886796 0.001417680487994569 -0.000496673440314799)
(-0.0003556534392729954 0.0006840460563456901 0.0005906964442230004)
(0.0006272013116526171 -0.005429539551308715 0.006391918224581525)
(0.0004185864092513085 0.001504254564760372 0.0002328466289145181)
(-0.001652665089280545 -0.001518543006401547 0.001497027797721138)
(-0.006147020927001438 0.0001824425149449987 0.008115578906713598)
(0.01886577857834348 0.002275375392544905 -0.004443695642404269)
(-0.08841822810436858 0.0294035088691465 0.002063182265084385)
(-0.03616004148404088 -0.0258294380808331 -0.005831879736997424)
(0.001951424308337631 0.0008448646478655673 -0.001026590805509451)
(-0.09365949220102926 0.01373816153921286 -0.00862794329750694)
(-0.002512166278353318 0.001461200582554138 0.001925854738223752)
(-0.0004983570139751152 -0.001114347310994194 -0.00343792450906415)
(0.2549625594927343 0.03292220232165421 -9.988635451473049e-05)
(-0.0004364359689954475 0.0004880798144828024 -0.0001066066485436965)
(0.005328793028342261 0.004611897581195034 -0.01969569395550505)
(0.001020511882582705 -0.001669109540205159 -0.000393757081727189)
(0.003258654324330053 0.0004439543973444571 -1.640176059110451e-05)
(-0.001179407643724968 0.0007731358486509186 0.0004392406570822553)
(-0.0001922303903881296 -0.03234606593469121 0.008372964412165326)
(-0.0005832550493518128 0.005841138191311853 0.001497308388040332)
(0.05750830302425889 -0.005865719798822029 -0.007452953428396694)
(0.1193733009362959 0.09055342694435402 0.001840651090098788)
(-0.0001004930775173053 -0.001772536408694056 0.001575119871221841)
(0.0001406195596681259 0.0001753240034769068 -7.913157411214367e-05)
(0.006571556844481408 -0.003676000691575755 -0.01986625293742662)
(-0.00122059792142584 -0.001240003700265831 0.002181230588366495)
(0.002804246463374552 0.0008680773968409832 -0.002049194427651874)
(0.001205380179750465 -9.108459411674079e-05 -0.001317651786759624)
(-0.07971921452395786 -0.02269095889309124 0.001516529868706225)
(0.0006277837740646572 -0.0005837926321406125 0.0004885415466560693)
(0.001947963223763331 -0.0004976438714390099 0.0005093255968154422)
(0.002607275233394647 -0.007608623321765888 0.02732544150346267)
(-0.002813045507383193 0.0002396838327304587 0.00056126690356302)
(-0.01407800617819755 0.03231930860830376 0.001944502979902811)
(-0.001012459353983058 -0.001394906224799464 9.935743941838921e-05)
(0.03670984481041048 0.0472475993504467 0.01110621409187608)
(-0.009199850045120818 -0.009469418191709747 -0.01887737839832895)
(-0.001812530406980844 0.002378614434752746 -0.01445414011420659)
(0.01384428793030905 0.01609413029365197 0.0004851164865704574)
(0.005569387386215723 -0.004232575311197861 0.002983887797224389)
(0.002680607876402044 -0.002218937375454168 -0.0004408436806149403)
(-0.005880780167269644 -0.007488671033381149 -0.01966864404781425)
(-0.00561861582274455 0.01607532119344481 0.009598369594232862)
(0.0007722309855212247 -0.001912385329222337 0.005272381190627226)
(0.01022480218120914 0.00355687862485907 0.002997659665589216)
(0.001116913823357591 -0.007531844457907357 0.0014671526151164)
(0.004071029735622667 -0.0004918621171718091 -0.001055555176450156)
(0.004415981200299022 0.0004438647025301946 0.003453820081057519)
(0.007420082218908901 -0.001186133764119118 0.0001671638709692545)
(-0.002987090094777919 0.004563398085567732 -0.004636060050696284)
(-0.01702003690996085 0.01141648987271499 -0.001631948711638765)
(0.00141124983427905 -0.003422709171484059 -0.006582033631757045)
(-0.0002942149881681568 -0.0005665793201250482 -0.001608545567686235)
(-0.0006773235678568674 6.761422317918636e-05 0.001509235316914982)
(-0.002602900393523472 -0.0007416315473891357 0.002911392028657752)
(0.04010336239703262 -0.0001376164449757699 -0.01949048126214609)
(0.0008075141890381182 0.002199397259988828 -0.0008931362004495542)
(-0.0002875584933598868 -0.001012100943076032 -0.000537851355556317)
(-0.01173683626229584 0.01498200383487051 -0.01161778566382135)
(-0.001974968589555446 0.001891532790147722 -0.0004650074461530621)
(-0.01709050155235838 0.001048646066930491 0.01467429886256138)
(0.002778235427771144 -0.002141612039193703 -0.002392499939309841)
(-0.001612307025770192 -0.000879302837277197 -0.004708405588603426)
(0.00195301234977557 0.006027154280496477 0.0003215101326016984)
(-0.02074819464844729 0.0003171278647803214 -0.006459936972215589)
(0.00510283628327996 0.007297023143464304 -0.0007633106315937968)
(0.0002681624896968235 0.001616641246617232 0.0004070422223292835)
(-0.0161044854125915 -0.01378863803187729 0.05019244611285818)
(-0.001908544580887962 0.0005387986067095683 0.001880593568720801)
(0.009530355440298616 -0.0127200314634772 0.0001628603460741944)
(-0.00201723627127209 0.02457022846199933 -0.001294299583023214)
(-0.03427343032757303 -0.007544459477930351 0.08148882263654909)
(-0.007158253747617581 -0.0001995890460396198 -0.0008506454759353657)
(0.0006838710912683526 0.000713454916984753 0.000169021221833422)
(0.0009173470924986906 0.0005356306775822947 -0.0002803902894160205)
(-0.0002209767363205788 -0.001735310271775245 -0.0009613791621105641)
(0.004875887244251458 -0.003403917771638315 -0.0003550041684816849)
(0.00257672531860845 -0.001732491602453936 -0.006465868126930248)
(-0.001984430487851987 0.0109785602395872 0.006983258330401535)
(-0.003033769890447513 0.001808482934987555 -0.001798214802499379)
(-0.003543654500507847 -0.003564776434444607 0.009575416731150341)
(0.01157254546558852 0.0001712698637917685 -1.851326316412195e-05)
(0.0001537816410757265 0.0004937226873489353 -0.001056519814671286)
(-4.238999311815747e-05 0.01093279574925365 -0.009416284059582322)
(-0.04216746339734252 -0.01576711657439148 0.005701453245365219)
(8.927412742316086e-05 -0.002774872972645145 0.0007814705499644041)
(-0.01816257832835986 -0.002032469613133244 -0.02846570670820549)
(-0.006588650690330814 0.0111229757636432 0.0003414539194135011)
(-0.00478843981564346 0.007235140544089036 0.00350955222270426)
(0.001324518082791532 -0.00592719526774496 0.006412568508749826)
(0.1167566731104621 -0.004534534602678009 -0.01183335209781848)
(-0.005031370028429495 0.0008189167651060565 -0.007760809224465572)
(0.0005621892636651685 -0.002608623798995605 -0.001658378963147536)
(0.003071187930608822 -0.001626331499539046 0.007241287657627038)
(-0.00203452265305765 -0.0009498829321282855 -0.0003928085157701884)
(0.003128581171335476 -0.002405732282206049 0.0009878743083085544)
(-0.006641852300779795 -0.002410684816252827 0.008300466336944172)
(0.02221627128103615 -0.006951203930567403 -0.02242493006347498)
(-0.07177113098870355 0.003122371922649824 0.0007102916098761089)
(0.002541150053828734 0.001657430059703468 0.001324468422684416)
(-0.0003204596759752813 -0.006316740520502172 -0.002512943352910376)
(-0.0008132856286265582 0.0007674906023822075 -0.002684881164960139)
(0.001551482038683722 0.002321420892408301 -0.0001989309010440078)
(0.0005384045687047023 -0.0003105991913483395 -0.005352068278598965)
(0.001386576202466163 -0.001226589344424874 0.000391411372073006)
(0.004114237281688508 0.0007207449715390023 0.003159910880143412)
(-0.000531815997965517 8.057298308080144e-05 -0.0006903948453288507)
(-0.01809973946503041 -0.02832332686391718 0.03267935881076748)
(6.668232629919967e-05 -1.560399385072317e-05 0.0004174404908500577)
(0.0006473339369738528 0.003280723495558409 -0.005005946868057639)
(0.001456025353904756 0.002340872719363039 -0.004417451367002497)
(-0.02731797452304844 0.003001477162399003 -0.002374765901731303)
(0.008891713525155401 0.002934109371270983 0.00709551035910347)
(-0.006195460607274135 0.00106141259795503 0.01468388373474905)
(-0.001700869477994739 -0.0002997656424877791 -0.0009631201026093865)
(-0.01010109999314989 0.01738577536728922 -0.01591420479526639)
(0.005081205593705515 -0.001020752888232192 -0.004621547614960275)
(0.004749998931454993 0.006654267714808465 -0.003077418844761536)
(0.01035177354969746 0.03988214980104606 0.05583937077964131)
(-0.008056106034584251 0.002371488649378195 -0.007968963965085799)
(-6.501482654204451e-05 0.0004233342642004541 -0.0008652544958740327)
(0.001765455670914637 0.01710733440718699 0.01079507598660634)
(-0.003664642927684739 0.002057587644947183 0.001734634687669724)
(0.0006306600040412969 -0.001444246136629812 0.0007459718036601966)
(-0.001078997391277169 -0.002571631530979927 0.002289868182222503)
(-0.001677716597857934 -0.0006156671025410335 0.002125458889897234)
(-0.0003156526370244058 0.000737919340671384 -0.003001142796377346)
(0.009155768487805563 -0.0008190036429591667 0.007030697109858208)
(2.868435601322201e-05 0.002705255239672153 -0.001441350068740482)
(0.001324016942371998 -0.001838217926605019 -0.003879061235490219)
(0.001766490866409865 0.002478847894012569 0.001074731081294773)
(-0.0008303789864475447 -3.815931847062074e-05 -0.0005327305846911032)
(0.001818188444996786 0.01096851367786144 -0.009520872730197314)
(-0.002419219175665026 0.0004334327573557401 0.002094003901643322)
(-0.003883623619267782 -0.001413591139520148 0.004636313089001812)
(-0.007280619182656319 -0.01333475548443224 0.1169799390160395)
(0.01123471380406812 0.0004247306357978916 -0.01473863671086395)
(-0.001092524793781075 0.0009528824680504863 -0.002248669331910494)
(0.01399543137109862 -0.02681543936780478 -0.003247640147698473)
(-0.001603397177663955 -0.001683755581940557 -0.0003755699747397484)
(-0.0003300906126495918 0.00308537505583818 0.001316603241888625)
(-0.0001472856207148676 -0.0002735987183494106 -0.0002254414759035333)
(0.001850967744831763 -0.001478180703746663 -0.0006434394133210847)
(-0.004668733494387917 0.0008140416192309833 -0.0006844744655527348)
(-0.01508195659209705 -0.004078412265923278 0.02537532980312474)
(0.001103461739088912 -0.001113282757500866 -7.022227743314362e-05)
(0.003901744209645798 0.0006600141949474898 -0.00011897071739023)
(0.0001489592101242951 -0.002394290951679146 0.0004936856716812162)
(0.004986027558418021 -0.007436713885455685 0.00109429896746413)
(-2.400437242383092e-06 0.0002193513654033631 0.001137769056402869)
(-0.001235987571334604 0.0003159907026420765 -0.0002999420340123672)
(-0.0003240234157093373 0.0002819580291635126 0.0007544343651355313)
(0.01010626649116644 -0.01937715269342091 -0.002028298092965447)
(-0.0009878812181548585 0.001214334672570441 8.401756200761919e-05)
(-0.0008777811311050186 -0.01076761136931406 0.002936542962129311)
(-0.001339340244137636 0.001305289554701779 0.001613824854858096)
(-0.002666493694708096 -0.0009593934479998909 -0.001678677793950982)
(-0.0008127392358841485 0.01335820149383288 0.001312551711875918)
(-0.0001851983059137656 0.001554823415900815 0.001004810964980798)
(0.002352070652814795 0.0009468083433982342 0.00243323733397522)
(-0.0004564624481780908 0.002792667535992728 0.001253607521200279)
(0.003036932021876406 -0.005196226618508647 -0.003744976709542687)
(-0.0004293032009750333 -0.001248906469299902 -0.0006318025653390614)
(-0.02791794057199646 -0.0006445514046126619 -0.01621512820657501)
(-0.01158168733956159 0.004818950175461318 -0.002135682121465237)
(0.005166015477868054 0.0009521825573554816 -0.00385025026760921)
(-0.008529906758597453 0.004500865282434128 0.000414959530782373)
(-0.00449414421552363 0.003946537604185838 -0.01347996439204431)
(0.001008985974290346 -2.488536109420173e-05 0.002145359705664246)
(-0.001266653452909471 -8.201744169601373e-05 -0.0006907532251070364)
(-0.003300234433017441 -0.002554739882198481 0.001526719197175933)
(-0.0006887133965268271 0.000429985904315738 -0.001682557946887339)
(0.0006756614166432719 9.029973205191123e-05 0.000441550125868087)
(0.008818919274702961 -0.008949122295284676 0.001860742507729736)
(0.003434109470289289 -0.002714460049215403 -0.004036181350462143)
(-0.001702678213226404 -0.0009054154698154155 0.0002219634650329686)
(-0.01598506183054379 0.007519759209743361 -0.0202358871567523)
(-0.000372580713664678 -0.0007078709348320674 -0.0008858049605225399)
(0.003472640858228111 -0.002038588933027617 -0.001665584812658646)
(0.001213833630471757 -0.00107488108769437 -0.0006225951129036178)
(0.001666904356698952 -0.01212289848105224 0.01035558048285404)
(0.001583069577791634 -0.001907536235085546 -0.0007601352154560703)
(-0.0002802071230736048 -0.0001436472948146956 0.00136743120400726)
(0.0001615209000417365 0.0001694431771939837 0.0007301010023916914)
(0.0001110131081864777 -0.004185834321182269 -0.003439631329411671)
(0.001545900117266566 -0.001374715091731102 -0.001443744886811522)
(-0.00132835874924128 0.0003814387069824079 -0.00542235982700694)
(0.0002309962144328877 -0.0006660989761805577 -0.0002681918144581467)
(-0.01436061357109208 0.003764131440840375 0.0004423465038743371)
(-0.001820947420571678 -0.06815656189734715 -0.001661901629474449)
(0.001922092368133948 -0.0008862102666704408 -0.0005671942664559385)
(-0.003114368452149789 0.0003517641793869544 -0.002687230118907243)
(0.0428777470912506 0.0001353286792408158 -0.006130781696405016)
(0.002241313707920482 0.002341934829602379 -0.004248471021856388)
(0.0006608443092589153 -0.002488880295155507 -0.006426162299227007)
(0.008905677023536736 0.01034864970541892 -0.002156423785948703)
(-0.108415830688735 0.01546162126189589 -0.009024278730121004)
(-0.0003088278820959147 -0.0002537623107196437 0.001392169695371876)
(-0.002270723243466988 -5.846286132435452e-06 0.001562115527357623)
(0.006683498159544068 -0.002045404854922985 -5.368446294870088e-05)
(-0.002088803601257101 -0.004859879392293329 -0.008204185419488419)
(0.002126733933167354 -0.001181900651564878 0.00296624789379596)
(-0.006562914466716708 -0.001573017056254007 0.0010733394081971)
(0.002855230979445568 0.001399602057642792 0.0007521783871950344)
(0.004896926369401129 0.002265733098098191 -0.003702177966310481)
(0.001980009903835458 0.009551238876071011 0.01089697098388001)
(-0.001059906101312509 0.008816684844879005 -0.00696497160334745)
(0.004727315164916828 0.002312770552214045 -0.001766259188806007)