/*--------------------------------*- C++ -*----------------------------------*\
| =========                 |                                                 |
| \\      /  F ield         | OpenFOAM: The Open Source CFD Toolbox           |
|  \\    /   O peration     | Version:  v1906                                 |
|   \\  /    A nd           | Web:      www.OpenFOAM.com                      |
|    \\/     M anipulation  |                                                 |
\*---------------------------------------------------------------------------*/
FoamFile
{
    version     2.0;
    format      ascii;
    class       surfaceScalarField;
    location    "2.1";
    object      phi;
}
// * * * * * * * * * * * * * * * * * * * * * * * * * * * * * * * * * * * * * //

dimensions      [0 3 -1 0 0 0 0];
oriented        oriented;


internalField   nonuniform List<scalar> 
37380
(
-0.3738726194013455
0.9931370698711632
-2.772475728311683
2.153211277989774
-5.265826885631922
0.8382461512222626
52.38052388164741
-47.95294314725826
-18.28200361517916
21.91377300519355
-22.79855827824631
19.1667888884423
16.81036561238435
18.24593400403544
-18.54119216348771
-16.51510745292694
-5.079876659419087
16.72319430021411
2.808647937580608
-14.45196557834701
9.368260408030386
28.04013227163198
-20.92317631320897
-16.48521636634617
-10.22318687290665
-24.81903902645515
44.41048630743482
6.957533874129799
-2.991687339153726
7.601867686323573
-11.56771422161562
9.636417144721944
0.4363116176721317
-7.407560921787687
-2.665167840480882
-8.922213793062181
7.589834532168393
-3.17183149218545
4.504210752208526
-7.519283273605453
-7.268098923718057
14.77776288828942
44.36761402011793
-10.70272443961428
-22.30554604738603
-11.3593435330594
0.8690346829301654
4.821984096258856
6.955047793569268
-24.11148931138051
12.33445742156308
-14.93103968941495
23.72822013677962
-3.406118297084624
-5.391062150365978
-1.491469249014903
-0.9454100645051903
20.42723379979289
-17.99035448547342
4.409125776738316
-0.001686459698958157
-19.33847900645968
21.12320314986274
13.41073870711771
-10.80572172017893
-14.15797936637555
-9.914437586780947
-1.586697830863753
25.65911478412401
-17.91452356191944
2.273078999912619
0.3386462598386364
15.30279830171055
-0.09190177988866138
13.57153046596427
-6.522094812317158
7.276377984832188
2.733439918323478
2.542166409830897
-12.55198431526489
13.58274431714335
-1.550292177427688
8.258863924017374
16.64739551534017
-3.783056289367722
-8.333778791772188
15.11321687526458
11.11641357843478
-17.89585166293465
-6.199245347863434
-2.208939557812079
8.844496522853959
-9.681466024796443
5.601051040915954
-6.40934667669029
10.48976165906424
-3.21429330038512
-15.89802881133064
0.7821287877921443
18.33019332379982
-5.085161117224975
-16.71658347731582
6.403758476798313
15.39798611778498
13.99656526344919
19.52735704469807
-0.9119093415589654
-32.61201296659734
-10.14168136129639
7.73370526418075
3.93489426073729
-1.526918163590176
20.79349544461046
0.3914684089521712
-24.39925715395163
-17.59042747797098
-25.32746367533811
19.07624297925126
23.84164817444345
-14.33076327922825
15.42368415494147
19.70057456896866
8.558014137022154
-8.752596689295554
12.97233889847167
-12.77775634611397
-8.030224553432197
10.57944219211951
-12.92586639273401
10.37664875411469
-23.72807686064056
7.443948791283497
-9.02783689128225
25.31196496224702
9.283818892172448
8.757911712591827
-18.04732872735051
4.564865786286721
2.620693360601571
-10.17724648647575
9.070390541536389
-7.309171377170029
7.522599727818954
-27.40630268994985
1.955215057449854
24.22247574638414
1.228611885942839
1.481625985866009
1.30656611370912
16.37341645186822
-12.78485006120428
-3.131505463864731
-0.4570609267702526
9.13848887081072
-23.36911796945022
14.84263610403319
-0.6120070053943896
9.23007049644813
-11.83910106473121
28.12388909602578
-25.51485852768122
19.26001269807177
-8.648706778778799
-8.214576803472116
-2.396729115378783
18.90696261175091
-18.99777328295787
-0.8881662010654451
0.9789768725887371
4.827994776393671
6.95359721139017
8.376956347925242
9.391160203495414
-16.65940092738305
-1.038314703894928
8.30655542797699
-1.87823421668151
29.90126133226607
-2.941868355864535
-25.08115875959401
-15.55760033848686
-9.506082671054655
10.1884593380233
14.87522367158866
-0.1901359790584428
-12.18983725411644
12.36582223823954
27.85336684577866
3.207843423676685
-10.73353249371358
-20.32767777572499
12.30128829544815
-6.308420781873334
-4.638754979427596
-1.354112534045085
37.03911305008276
-25.50446592824965
-34.51007732398605
22.9754302024913
0.1713756945800965
-28.56759837520019
-1.063515109341644
29.45973779018734
-16.08355279787347
13.50643201058577
6.806332060343315
-4.229211273669583
13.9744240493046
0.2988016622586708
-17.21488251233606
2.941656801309481
-22.16631886547529
15.41207844805623
9.9473880533947
-3.193147635807339
22.84695351697004
-22.0693436814642
-15.38575846278624
14.60814862732293
0.4019786587045964
6.645504236059767
-23.8403175359671
16.7928346412648
6.163764116653295
-8.349421004576433
-16.81842222483631
19.00407911280281
-22.62979090635529
2.177739415905779
20.06769886318278
0.3843526271474612
-6.735915367879945
-11.47537332935386
25.63524582159963
-7.423957124338031
-29.02839355030327
-16.9223603873455
16.97134628764529
28.97940765018121
-21.77990598346643
7.074003501192254
0.6001622993469843
14.10574018295971
13.87975325897237
-20.99398302579387
-20.2920729234804
-11.07083854433731
16.29580990144001
-9.221982774485953
3.99701141739917
13.50404512082855
-18.63606911937541
15.00894145741071
-9.876917458673608
-21.8153195990377
30.701019907025
-24.86873682246481
15.98303651473876
23.17671769485526
6.99969382752268
-27.69157580996483
-2.484835712419434
-16.78987911145437
-3.743809153731829
12.1767185784554
8.356969686815317
-1.318597306206797
5.192952498300656
6.181737747944426
-7.816117309790347
-0.1588798240521779
13.08445153052665
-27.23941868356431
14.31384697750297
7.072578023420612
-16.30569524223076
18.71255168419061
-17.14052870423843
26.84919474653929
-9.716184051243856
-11.21107854112708
-10.43411656787214
21.64622808322472
24.58281801773372
-10.47072924353614
-0.2323355152844318
13.49802445730994
11.33197644011618
2.683261984821143
-27.51326288212848
-20.8823746965679
8.126016087429933
6.555023976179789
6.20133463460585
4.436922611625266
4.826124309023692
14.40183210442041
-23.6648790251443
-7.850005457189453
-12.40959920347721
2.385761590245732
17.87384307137207
10.44768757860375
0.7761699185895125
-15.82655432456608
4.602696827257638
-33.09391911112748
-1.682213945844676
8.320969747117843
26.45516330898717
-24.32326063416471
3.846576830670239
-12.61723530779026
-16.21661430221652
-1.057292945451891
30.4554331986649
-13.1815259509583
-15.43562287528262
15.90164999310317
-0.5015925228081495
-4.175172138456754
-12.61808199219343
18.40970101403392
15.50411717383872
-3.151570530259889
-1.408621909061063
-10.94392473475979
-6.587248786450577
5.859935213706847
-0.9494064576144902
-4.921059667085789
-0.7167826621543256
5.871134186407508
-0.1984691560290426
-14.56292198608079
15.03309438848947
-12.68813769898078
12.2179652966148
-0.8262476269393757
-7.655437484487273
6.241613102684918
-11.02848066375709
-19.33767781700102
-3.471401138352319
6.59246465314637
-14.26614414948526
-0.3022381733046204
-3.356440753750836
7.91388225913897
13.08857627021418
-17.64601777646167
-0.4443614091276916
18.51619049489155
-18.07711414531152
19.01737659116333
13.23715103321874
-21.82840514482207
-10.42612247949743
-38.02727814718704
0.06991183305219187
20.89473944063466
17.06262687357839
4.414782501596979
-30.69847792930435
-1.887795703283458
28.17149113108259
29.21595570803138
-25.16312538749695
0.361952181112162
-0.2166035410739791
-14.21790037318991
-10.76715882799764
25.20166274302901
-13.34221893460061
-2.630262746744746
18.27724105870841
-2.304759377351376
-26.78140498022971
23.43388637923268
-30.65312452738868
34.00064312856272
11.84187751176227
-5.752041543866549
21.16557492019069
-18.52675001642397
-7.66397303613402
-7.467688954766335
15.12471532802632
11.27210128287842
-13.52307946959241
13.92076634985661
-11.66978816305621
-20.14837971983363
11.54066365984734
5.878040335009414
2.729675724446349
-4.958413617944057
20.54640341283027
3.253436305034512
-18.84142610004186
-16.98314738001384
12.50480756451764
-5.135501764794379
9.613841579354267
-9.889911128493626
0.7732289962495873
-3.086766171020963
1.044208701044229
0.9980700657880102
-7.249820078791934
5.207541311949345
2.443200001859933
-5.919915371805752
-13.20096896600902
-17.6575606743093
29.29991791542896
-10.18154338254715
-1.460813858414481
7.045584447174932
1.214126387910619
-7.215502134395091
-19.49121011837842
-12.19727846795524
16.87474756753534
14.81374101891195
-1.719939320192322
8.166247976513429
17.76134519071963
-37.30588249930518
11.37828933210807
4.966942124130851
-3.316189593849128
-9.144899194148543
0.2920844010886799
6.79789705190885
15.06442602530318
-14.12043857061185
-7.741884506747398
1.585337460316396
-7.541972401629991
-15.79324089915482
6.949435077295481
15.46027252402475
-6.61646670192866
23.13207742357314
2.746865808611779
-18.86397121937262
-7.014972012744188
-6.791030725725698
-0.5885479965274617
-13.50279597332829
10.75182561116305
0.7796375156628388
-5.728844237432086
-5.802618889759755
19.0187385237993
-18.40908118984914
23.09836672172812
-23.7080240556381
-6.080087136413676
-12.14191774921992
1.544239393433668
16.67776549250726
-0.2680879014128364
-13.03936884205225
13.29954402196127
17.23271783817714
12.66415140866254
-6.989536329644007
-22.90733291906291
13.11896037054295
-1.80331488490917
21.67410792942188
-32.98975341496337
-14.39234003171283
4.280159036389145
-18.33158216386478
14.07305652253252
-0.0216333970402469
-24.70055605425465
-11.80392196819439
-3.030621826737816
16.64153478033239
-12.83261042772073
-0.778302526429137
20.65972882241263
-16.41889118274316
8.878122730941273
-9.009184886147915
9.088923965434585
-32.42515409801933
16.84085197809728
10.59407602324518
4.990226096698013
1.738504242586833
-2.567387559010546
0.3508654295265816
0.4780178867570281
17.57345836186908
-10.63366640398448
-24.69204596797373
17.75225401010365
-6.408900646535216
9.617208503575585
-17.65405211064131
19.60285240083909
-11.56600879375888
-8.728798628140494
7.685622115451415
-27.65159439201312
28.69477090414675
-7.714610203820649
23.52938600014789
-2.683854622411824
-13.13092117377743
-9.69020033137074
5.717666056720327
-24.231297698688
28.20383197293496
17.93493154279684
-9.18273014393152
-21.1192574969064
22.18027937695314
-18.23340704301249
6.223393904258653
-25.69770702120816
26.07901760692829
-6.604704490092104
6.527610109097788
-29.94176659777027
7.862602645479831
15.55155384318039
-0.4543871053460449
-0.3888957993139969
0.9178136431832563
-0.07453074037067822
-12.13747246872214
5.74283556339114
7.935219507760491
7.822910351943362
25.23563917160273
14.21167044416084
-19.59239348330204
-19.85491613220153
-2.069747950875556
1.361871363343727
-8.301308298949786
20.287364594783
-0.2811798679732713
-20.0121652305343
9.23794870539419
17.97400720019059
-12.96241879919986
-14.17351587096453
9.161927470087454
-16.55646161228154
-2.232876528126183
24.43886590498319
-5.649527764510579
-8.664212132595269
12.23276368268612
-20.12501316231372
-23.46468495169312
30.49924467602267
-2.75492019516936
-4.279639529261677
-2.645969656474477
-5.055497050769198
-1.627761116394802
9.329227823539602
-1.333772966658436
26.75423142428922
-25.42351995001249
-10.65526180904108
-29.74363734909321
16.93421420649624
-10.12421580880937
-4.899201343100204
-6.272086822812228
13.80625458906844
10.3428379328892
-20.75541902782053
10.40648883602518
-8.883036240636422
20.4564143015763
0.6362138460007113
32.46540701309477
-15.52869828978063
-17.57292256924912
-9.761942300148144
19.85999248829105
-10.10195514255293
-13.07457810891957
28.17150125121091
-3.598262128695187
-10.07693883913809
11.02923131103776
14.91186794644073
-9.878201496140564
-2.400879709022916
-2.632786740595677
-6.417011447682393
-14.33231168054987
21.6623202191811
-0.912997090939228
9.381875665182925
9.153350668376079
-5.723182645900282
28.92290471522355
5.976903998992484
-29.17662606933741
-24.52165048820754
0.1234368844225987
24.39333221887112
20.09428704137537
0.7689366749554015
-1.535049978589313
-19.32817373771313
25.51160601191948
-16.98932640351834
7.113726173109496
-15.63600578125527
-4.074158897990599
13.49240515552419
-4.428704841885415
-4.989541415721814
16.69946834749481
5.947115243868939
-10.35112680069011
-12.29545679087986
-4.106572232545668
6.500299567280504
15.12533193839518
-17.5190592731085
12.44598852470032
-10.79880481267142
22.35037087892906
-23.99755459094336
-0.01223844298911873
-0.03662703221200599
15.5719747203448
-15.52310924508053
3.172066215615573
5.908030721008945
1.67172867449209
0.03798549295825981
-20.14655322911044
20.05533715276592
0.05323058339940875
21.67691328675094
12.89557246600053
-22.74086903471457
-11.83161671780211
-8.410833804112881
-7.624935529996105
-2.016137358263278
18.05190669238573
-6.418750872984029
25.15194224385681
-15.68160426332897
-3.051587107281051
-11.32927661910247
30.62754294532541
-11.38489477154073
-7.913371554407439
16.17028189113664
-15.21867454391499
0.7556397251272663
-1.70724707210991
-1.918425332612627
-1.317790595138648
19.40649781904813
15.91478934234611
-22.10270733170152
-13.09824071733199
19.2861587066781
19.12050069799283
7.110108089979826
-23.69333304687312
-2.53727574096271
2.984558617683283
-20.02631928185592
17.03598514301367
14.29444502028168
-16.61022231348673
10.64413021781914
-8.32835292432998
22.35056680549399
-0.6465878478159689
-22.31144141145717
0.6074624537982609
-19.04215895729892
19.93027117266833
-2.806537547787352
1.55645519188449
-17.90765868657292
15.88857252401122
0.4626309705791149
16.71259240646681
9.202227287286997
-8.923460243319635
-13.12447311408232
13.14644973595824
-0.03128394383979072
-18.65739338707795
5.602912637080901
15.03151045956141
-1.977029709546159
18.28990889262356
-8.018290956062557
-10.33130450683603
-9.657894372655305
12.8335877316531
10.36284652909048
-27.60010446149867
-3.252206111881958
2.775424786913906
28.07688578710818
0.05327985865994355
-18.53760724055569
18.47899193003759
14.991445402099
-26.42001885324868
16.80436918184627
-5.375795730651949
5.604655094362213
-5.459686177779718
-15.08990580692369
14.94493689053075
20.08045102651754
15.09845641783761
-14.89154284953967
5.77565320698856
1.722998116541431
8.697524124543978
-24.81955838739615
35.68212378492718
-2.838074629843962
-8.024490767396152
-14.66821556462001
35.70339193357839
-32.52468573971561
11.48950937078127
1.193361227067093
-21.69685320208571
3.003189171149738
17.50030280391665
-13.56040222535294
-9.098987360578951
30.76606849099989
-8.106678905198667
8.728939876655462
8.044818578762618
9.229880056347652
8.180206784138846
-17.42497014881243
-1.444773122572254
-27.3720978818725
29.41948473543958
-0.6026137309649297
21.7793312311572
-0.1683091356719507
-21.61542957956118
-19.99998925707236
14.19800756786916
6.487672158504081
-0.6856904701930128
21.05604739792793
-20.358542795186
-11.67558873294682
10.97808413020696
-17.90902214062488
-15.28951220697952
20.10805844888501
13.09047589872885
-13.92739685114362
8.624347656157072
-14.82934032496054
20.13238951994105
9.974297408105727
-21.63696171456395
7.7769194629278
10.30567706008982
-12.24011102932707
-5.842485493644228
2.364857364251404
7.901697359797167
-25.60205787943464
4.928097922570054
1.202029394439703
19.47193056213635
3.83206574060245
-19.29508186912432
-5.644988014417486
21.10800414283238
-12.58614814614782
13.19437819772322
-15.14101532555946
14.53278527417811
12.26510037977002
-12.14601943461049
8.667756238985227
-8.786837183892885
-14.8205847570222
-5.588557769035082
6.237846799107042
14.17129572713341
-11.69783889321694
7.373037515266274
27.45687880157624
-1.654346398603189
-24.78389032141927
2.454641091313009
23.98359562886109
-15.43733261886611
-0.02131486723419047
15.44852895332188
-1.402559451692256
13.39872736248258
-12.00047780330473
-26.43694135600835
22.42285922325508
-1.093765122893684
5.107847255688759
-17.17417813778263
0.5464031757276357
17.41706498511853
-0.7892900229127895
-20.9331865441265
0.02956819201525363
10.77956186633635
29.22254262422682
12.43768775512787
-25.61441979799906
-16.04581058107543
10.2575644443043
8.904604388846815
-15.70343223348037
-18.37349530183135
10.76907846590964
23.30784906951212
13.46287559124868
-15.92496154273076
10.23900541446337
28.06215264697533
-22.2837468248254
-20.23900353315534
14.46059771104176
-17.59032594852193
-10.14391584528366
14.36531357070633
13.36892822275312
9.515419992970225
-22.2256918113918
-2.993160414883477
-10.3237509495239
-6.397502527856305
16.71491601310444
-12.74643855391739
14.93732386661644
15.59326703046547
-17.78415234342826
0.3720963604285076
-0.1960960112079388
18.66918683008115
-18.84518717926697
-18.70075938508369
0.04821243196623509
18.63006129425682
-1.301473941246571
-14.91209086737125
25.72898480177951
18.73864559072191
-7.355558587812858
-12.68456094387376
-14.9555649903602
11.46507596420967
30.27066774362167
-22.99709811665638
-18.34420382155132
-8.570612392725733
12.00272534700104
-8.745036045146533
1.839974717943982
-7.065302832146276
13.9703641593589
-21.3893175016498
10.78831022845133
10.59269608360258
18.53314130593257
-5.8291128776169
8.045644081421797
-20.74967250968653
7.541571017666274
34.51517323318989
-3.056906913490443
-38.999837338054
-1.001476361953066
-3.405207477479657
16.89545268805771
0.8265121055766693
-14.31675731606673
6.118864625250869
-2.440859070778166
15.88486755991834
-19.56287311461778
-15.73189065961023
31.85497684056255
-2.139422554886552
-13.98366362605473
0.6803891570456991
-0.8095071042256681
31.18637361039224
-31.05725566267423
9.608895304823164
-0.5430438374365318
11.36804725882307
1.730732563021544
1.720557700139485
-14.81933752185666
-3.957437741824597
3.2722544227541
6.556317505266342
-15.60884024984689
18.67636021999898
-1.339599440615004
-1.727920528902564
-20.62651031002618
22.47033706681379
-5.7211077024328
18.52236908487683
-19.53487268603965
6.733611303716396
-1.453325735956977
7.104783297952616
0.5735599407274005
31.18477793254656
-3.203831608173285
-28.55450626407968
-12.28419248617304
1.015754701144092
13.6090464297279
-1.088830404429765
15.21332111454176
-27.73353713928009
-25.15891423515526
10.78254468676551
1.952069715647716
12.42429983341417
-6.868827010172342
-0.2846877650415318
-8.67843233361487
-9.727830968252402
3.856659848357869
19.81549276255095
-4.276164653311492
-29.52010056997876
-10.96414691743885
10.8382806251766
-0.223526200927863
-17.16937273234557
38.85944154216403
-21.46654260871139
-33.26018676182677
17.80458392480423
-1.968909688755577
17.42451252575059
-0.07705141071776474
-20.27533965032034
0.1350946895744896
20.21729637149019
12.85674062796
-34.84667686159057
12.73689899185961
9.253037242020998
-17.6206146432143
6.070746838139944
-15.3287881748171
15.30546696381031
11.47345094405642
21.95679145354722
-25.96642102558818
-7.463821371913503
0.1502433945442788
-22.69874151423759
-0.07627312587819371
22.62477124566206
-9.750914728796909
25.25845781268773
-26.13771429232907
10.63017120846007
2.849976451168049
-15.35130129519127
4.691468131154266
7.809856713155256
1.4994484770506
31.15280487187743
-21.17880240481006
11.9866192478952
-11.28493010546083
-6.565603980143751
5.863914837742708
-5.665624487232455
-4.08556264642235
24.55022384163339
-14.79903670798928
-35.5266626475558
5.723388639007731
2.518251076820737
27.28502293177623
9.353243263975186
19.36477230089611
-9.316523180351213
21.94544578421569
17.98066281673873
-25.66008962966138
-14.26601897150209
15.16457872851326
-15.49017381080403
-5.251958738299635
5.577553820596733
-11.43040840831106
21.35385048674826
-9.929652655036344
28.04463523063075
-22.99913329083213
-21.65224847845877
16.60674654030652
4.907148453700286
-18.98672330028888
12.44523797165936
1.634336874950973
-1.028054159267182
23.99433123696091
4.134822227779742
-27.10109930544389
2.148129482724752
39.67243018497579
-14.93207415389205
-26.88848551490873
-0.2921426685194617
3.032977006149537
29.0434931322698
-31.78432746904743
6.599527369324428
2.744619719782574
-14.6958149511501
5.351667862058429
-4.876600726261146
15.21508540874022
-2.166718446504611
-8.171766234407009
-16.00458916780906
-9.713192298933814
3.475549776703114
22.24223168998574
4.724539526776796
-19.69371844513458
-5.448416652511679
20.41759557085951
6.909881566216483
14.09654633212443
1.066824624817734
5.361305229859899
-8.497877805899924
8.671561952161426
10.87411053766218
-0.6886208442377402
-18.85705164539938
-0.5401755375938153
5.442884819480494
-6.622648602158323
10.52525546313393
2.932725105038883
24.47197739503668
-16.03067494438262
-12.49642474332619
4.05512229262979
0.6581217008802587
-0.6709133089484088
-23.50995762063119
23.52274922905571
-2.672260129320862
11.11435121676703
-13.10318782175304
4.661096734661648
-10.19549468784882
34.51323027097106
-2.640822296209019
3.985656411293436
7.65775194429384
0.07862501278050248
-0.08330530445570296
0.5795911020403753
-0.5749108113028344
11.63727150531133
3.646175421241446
2.855594319170486
11.17817118180468
-0.1550167394420401
-1.409312862878057
19.38303318933369
4.885396530107613
0.2711445547928556
-24.53957427549499
2.833552486494594
-7.433424958913205
33.11943310491555
-28.5195606334001
-4.956387478003417
-17.14876566228843
1.070158345039786
2.719568166048421
13.35903915132122
17.01805181649326
-0.8752652675249692
-16.15203758277655
3.545517805562429
-17.67600135846287
20.88539278685154
-6.754909233497065
-14.88005570325183
17.22471419662062
16.53855112663021
-18.88320961984225
-41.72060089401758
-10.35936536515445
24.45965959173473
27.62030666768491
16.47815592855542
4.601442577665149
-20.71632434029112
-0.363274164950682
-37.2435146329103
27.85863110899974
9.631049883447993
-0.2461663615388655
20.16806978694185
-4.182803294529678
-25.0544578828533
9.069191390487088
16.99096313686289
18.85444707066424
-19.36725427705303
-12.04742914631428
4.930326118795511
-11.36987457227777
18.48697759984466
4.286921775724546
-3.635425083460681
-1.741831965911288
1.090335271615317
-34.2599921051121
37.47824225887901
1.382310852061174
-4.600561005856119
28.95475721340875
-21.61187136040861
17.29468485090853
-24.63757070380559
-15.21569591359006
7.563719169215789
24.64293988214236
9.941671280188963
-16.27443312596603
13.53335326220075
-7.200591416391203
3.42060204543388
-27.06534433616619
16.79209043980112
6.852651850744547
4.779738334738604
-3.710049884950855
-14.02978857632172
12.96010012643476
-12.23514006413116
1.620886728351595
18.92108395238498
-2.645896322532525
-24.059715900833
7.784528270963474
-6.949972372266735
-20.23533374757146
0.1107141919332649
27.07459192795901
7.389279159226482
20.64671821253204
-9.114913419209442
-14.31677313865922
1.944697947076177
12.35890520198461
17.60301747817727
-18.5168236125395
7.40884286731595
-6.495036732854347
-23.99715357249377
15.72670707904101
13.29768831967969
-5.027241826265251
-3.669236283737122
3.068447504996136
-19.2424570427518
19.84324582162569
0.684243475732895
-12.15603047492372
6.606121309460966
4.865665689778997
-15.66959970094843
6.517240607836173
10.52275923803147
-1.370400144920312
-14.45620340892077
23.83628995985873
10.0029466381652
-10.07919416833761
28.0211445544498
-9.5140819280101
-8.427868458077455
-5.262174883870752
4.010115570492353
24.45527321698389
-23.20321390342553
-32.09600038466485
8.293317493488951
20.64994786312083
3.152735028067882
-24.33305203766525
0.1628392885492784
-10.18144816392686
34.35166091339051
27.55651373953262
14.92576057339709
-14.44662329339756
-28.03565101935301
-1.575528212549517
-7.657554473855135
21.55113926917133
-12.31805658288336
-9.499900829217639
31.50378657912993
-21.38126238757373
-0.6226233623089737
11.74976401494662
15.50725932435433
0.03173068207963934
-27.28875402110267
1.674253428219668
-23.41591312023264
-1.572469319089936
23.31412901112636
16.14154543076856
-13.27520574098392
-18.76436850115299
-0.4467568419690918
14.18442432906506
-13.74982550358125
-22.12727450937668
10.97840144910431
11.14424675203165
12.11400930903256
-22.60707150105106
-7.736945495307569
18.23000768763342
-16.68198138507837
13.83866066805461
2.837873942704657
-9.058236545035797
12.43030017066917
18.05496393231334
-21.42702755759028
-15.99215727995399
-2.816575957081447
17.49094264215952
0.810398519859726
11.91337472386808
-24.30135477628172
11.57758153262283
-17.6281630824503
12.72805070378538
-11.0920449010478
-2.985225807894287
1.230113642686559
-18.42003806013172
20.17515022557634
5.80531563205106
11.85352147807745
12.98478066935774
-30.64361777931063
18.73773943751794
-2.145160238000305
-8.165369165017061
-8.427210034755563
7.49526836522658
-2.47118044199376
-21.38440634939545
16.36031842616959
8.918155390265957
-28.66110997636999
10.68471804131744
-4.77270095133804
-13.03578504347787
-2.737518074635044
20.54600406985779
-7.989114673681934
19.09823226214451
1.878270961601975
-12.98738854998351
3.026035810738761
13.83699284392315
2.051562548483091
3.920646894282
-23.34443413110053
15.16003363103227
4.263753605862231
18.82578154384987
-14.9845773252591
1.478781383812791
-5.31998560241211
-14.45335071421538
1.129049198743743
-2.043013078913972
15.36731459289735
17.38319974042401
5.83254070627253
-19.06316714052594
-4.152573306078118
2.602716401622602
5.119675058401677
14.47101136566449
-22.19340282584336
20.66653996710035
0.203962087257377
-25.43653629782296
4.566034241016931
29.35974203390776
-18.68875342217075
17.93224586580179
-28.60323447792625
4.626341632945833
11.35923457699852
1.786672825831613
-29.97510718944639
-3.220653197816838
20.44765033964959
12.7481100480367
-4.134167389381775
0.3468758625420353
19.22880542296235
-15.44151389609648
6.914172472901721
9.365919429395801
4.822684958192345
-21.10277686041981
12.15698478868653
-7.058182961135084
-18.07315786008584
12.97435603273742
-18.49821770406118
10.04938286305367
16.11977265187171
-7.670937810823219
-18.56264361607865
19.89948658616013
9.114686449707706
-10.45152941984027
-7.917285624944468
25.4826495709534
-0.4353325628094607
-17.13003138334053
-21.03817346422084
-3.335293251085542
22.7604471706552
1.613019544762786
-2.324799841489865
19.2876074057302
2.829025479894347
-22.35081263513605
-6.855749818668732
3.604504574001703
-26.89539295568582
26.21244934826779
-13.77325980192284
0.9205596110109995
-41.83401586213312
6.886326702809615
-18.6787878261746
34.55890417768124
-22.76644305427392
17.68798870112374
-41.64430291425243
-13.68704743573153
37.6433616489325
26.43484791089487
-3.632566777014945
-22.38265744067489
-0.4196236931436963
4.299301575115288
-1.43074914622785
27.69718370731859
-30.56573613612897
24.22462494672952
-26.3946758824079
-1.139896051446488
3.309946987142434
15.51747434688162
-12.55196737522916
-24.25435466643341
21.28884769585237
-5.590992315280772
-12.91299177927046
14.28966890581617
4.214315188735993
33.34591941748923
-16.9847484807456
-19.7371346013279
3.375963663728259
-11.45582954028249
1.607924492269426
12.46500608207176
-2.617101034343821
8.015847434136786
9.708896597179093
0.07021584856380039
-6.285388140253626
-9.828941819289383
30.85762160153617
-14.74329164194595
9.918008364038419
-20.30455320892371
9.019250766946666
1.367294077923225
-19.45180208405048
25.237723014019
3.466500292654314
-9.252421222772004
14.28661681874922
20.46183345814809
0.8111938443406372
-35.5596441212757
-27.1809031405041
-8.593034784943351
-11.59699716667764
47.37093509281996
37.72342267775635
-11.27683987478969
2.563634779067748
-29.01021758176388
15.64220487170835
-36.02068280971235
-8.405479877461348
28.78395781559914
21.42262294085619
-12.44625117760308
6.209942081497638
-15.18631384462977
-20.23395827013902
0.0763820610053214
-3.031847190938363
23.18942340019816
-21.26263671951066
0.1060901347208335
7.458219249960184
13.69832733491535
-10.92739896973687
-20.1142289513919
18.80831977550142
12.23330814604803
14.01974245134925
0.2577648268939977
-14.28373147601357
-14.44853883075951
18.76935810551859
33.40260340290457
-18.11000186149538
26.00808070822654
19.37855343386071
-27.27663227686926
18.9547641304572
-0.2208668195611421
0.2834792802855595
-10.60702813213282
-9.640540013348573
2.459112828924879
-23.00293380731898
-6.637082161883576
-21.14292315406697
10.52926740709364
-0.3137432225926201
3.489031035650259
14.94977406539625
-17.24544387388628
36.96477027552015
-16.95929562276945
-15.09393494206014
-4.911539709519283
-4.195649943321161
10.86693732990961
-26.78551633772712
14.20289273532437
3.806790645817385
1.718181580551771
-19.72786496146178
1.259664164915872
8.807466763776532
10.58664789089605
-20.65377882033141
2.253190374973339
-3.670509939715496
0.5381432262752172
0.8791763385924851
6.393769134248548
13.00611675491031
-1.269017583478372
8.742466291750798
7.943854147259921
-0.3129039871436979
-3.659486079066461
-6.708027885371828
20.15503070130262
-9.7875167370788
-42.6086986448671
9.494369258739612
15.00432752669087
1.64178362045446
-19.67473558107488
0.9424247749362433
17.09052718633497
-10.81591359099372
20.93356014324028
2.354848645751134
-12.47249519827461
26.96278210907606
11.51236800415309
11.19020574224418
-49.66535585508655
11.33544131189151
5.463801669886614
-15.80765869005081
-0.991584291744122
-23.53018574659853
-5.915652304072121
1.343314052231769
28.10252399865136
1.193728801169482
0.5960624857220288
-25.31997703330927
-15.30913800299596
-5.556602872269633
-8.015553297208237
15.41505593058157
-15.93396977195979
2.160697462589854
16.26239278482836
2.757159958468571
0.8629467865125028
-19.88249952987029
38.53229574368226
-20.80148507546964
3.576289186900346
-21.30709985508843
20.4076072761882
-27.20489016299477
6.791655900316611
-9.084724204677707
29.66570513457636
-1.471726388734227
-19.10925454113794
-17.33622988167639
-5.426106343189335
14.93784232543406
7.824493899517788
6.836147723800719
-6.716858216543496
-2.588172244711465
18.28614499875205