/*--------------------------------*- C++ -*----------------------------------*\
| =========                 |                                                 |
| \\      /  F ield         | OpenFOAM: The Open Source CFD Toolbox           |
|  \\    /   O peration     | Version:  v1906                                 |
|   \\  /    A nd           | Web:      www.OpenFOAM.com                      |
|    \\/     M anipulation  |                                                 |
\*---------------------------------------------------------------------------*/
FoamFile
{
    version     2.0;
    format      ascii;
    class       volVectorField;
    location    "2.1";
    object      U;
}
// * * * * * * * * * * * * * * * * * * * * * * * * * * * * * * * * * * * * * //

dimensions      [0 1 -1 0 0 0 0];


internalField   nonuniform List<vector> 
19632
(
(5.001838362729404 0.03871293832035477 0.008990325306378161)
(4.997456345235514 0.002651615846510187 -0.004104856576533906)
(4.999996142932245 0.000235854136541373 -0.001713456107671911)
(4.999345529195442 0.006634226604434131 -0.00429975271762555)
(4.998245413918124 0.004584387096000719 -0.0005080176417888019)
(4.99275199027842 -0.004198897122734223 0.01044405318419707)
(4.992906384767668 0.02148955189684606 -0.005550364601713595)
(4.994153929016274 0.007734601144652314 -0.004728369876587903)
(4.995570624645319 0.01526423308594874 0.01078633047216549)
(4.997263532100748 0.02906895605355414 0.006895268232815437)
(4.997886453760338 0.08574042148853948 0.004125663278421831)
(4.991859841013058 0.002154531958342327 0.007574593284168857)
(4.998169832420717 0.01767411712203738 0.01067202073640051)
(4.996028268246741 -0.001593568113030287 -0.001068004147919857)
(4.997116222650153 0.003906031691336883 -0.0009618891361985623)
(4.997323186478932 0.004153603618949158 0.00194417983139371)
(4.998909172398615 0.004426295480050003 -0.001451769522548389)
(4.997232789478837 0.003129454938442722 -0.0007152171555246423)
(4.998623170010259 -0.0008085886269699281 0.0003218961601700723)
(4.993193482920875 0.004919080576198513 -0.0002785036829063893)
(4.993364444497513 0.01099360168795749 0.005667743236186391)
(4.99013986117039 0.01017714751730689 0.01172612860229811)
(5.009858882349945 -0.004378399167071292 0.01214885327435787)
(4.998032046720289 0.002622138375948614 -0.002167994992680267)
(4.997326978628861 0.00406138236905098 0.001672111901495312)
(4.999305542165735 0.008779305525097978 0.008544410231431123)
(4.993885871318396 0.016834677074768 0.002944087194388172)
(4.998086280976199 0.002636483556127402 0.0008560312605284357)
(4.999614317641064 0.001481349452016105 0.01622725235465036)
(4.99986750402478 0.002028286424384023 -0.0001887488513213671)
(4.997199938373695 0.002312725452183491 -0.0007352019982548388)
(4.997325534191976 0.005128857724989421 -0.004673844792431033)
(4.996991148564985 0.003066118868397905 -0.003152443227250988)
(4.994246812350671 0.003124969357980942 -0.001889473801564091)
(4.998722102952981 0.002373041450530099 2.706278057157368e-05)
(4.998907610206151 0.002617210546274914 0.007953057853076099)
(4.993767988162643 0.00356555367914217 0.004415149321220348)
(4.994871012066806 0.03545907700557237 0.002210880810212925)
(4.994821730884966 0.01212954822548958 0.00900655996196088)
(4.996600417740225 0.00899694546080796 0.0005399409931533337)
(4.998202189571694 0.00216603581370087 -0.001515607562059242)
(4.996413642842581 0.02658530927574494 0.03122173511761263)
(4.987401435865621 0.01118893502566781 0.01201106286049545)
(4.999076275412685 0.003879740491255883 0.002482450040747891)
(4.998665342276778 0.001420315040741259 -0.002461694143440345)
(4.990495849465506 0.01302948369995755 -0.00171051372330616)
(5.001035603398909 0.005395708866064617 0.0134333019614086)
(4.989634396721655 -0.001473546937047705 0.01516107233043165)
(5.007733187385483 0.005306173860052678 -0.009652312443490931)
(4.999845185603495 -9.963321486876205e-05 -0.00709826391566546)
(4.970641046432543 -0.009017623125387409 -0.0134373107567196)
(4.979476516318798 0.02621388461480965 0.09880014795379184)
(4.996457865097167 0.01686330768899231 0.01264353362114576)
(4.990071565574912 0.01400833690810321 -0.000927884267374081)
(4.987749085691115 0.004977567649503576 -0.006659980078998322)
(4.995903971971783 0.0058247726282024 0.0056191708137424)
(4.994712100078278 0.01555643629593534 0.01896255854144346)
(4.999423452246751 -0.01967914335267788 0.007574235977043007)
(4.991249410041943 -0.02339633388012911 -0.02723881831292138)
(4.999254375539374 0.007514970719190896 9.753592947105619e-05)
(5.00102721229325 0.002228214685257593 -0.001491622662759059)
(5.005702567943713 0.01586828340786157 -0.005689117319252186)
(4.997997334423954 0.002863616569020309 -0.0008346156699360412)
(4.995649112841527 0.002420551378995606 0.01394716224691369)
(4.994251442887891 -0.009280269141882912 0.00924594930768515)
(4.999902258240713 0.0002380592759739561 0.0007745590112063057)
(5.001780255394443 -0.0006359175978986281 -4.639823476261231e-06)
(4.997591543782378 -0.002793453224161508 0.008477582977940885)
(4.998633770449756 0.0181085821686271 0.0160981242843954)
(4.996103569719966 -0.01063110403942761 0.02697044426718286)
(4.998223193429975 0.001726395225737991 0.0004994483751939008)
(4.970903747521837 0.009666235231866755 0.001797886051535093)
(4.939266729288274 -0.0008385680350254581 0.004619992073266861)
(4.996424121936526 0.01537055287469321 0.0135834329049811)
(4.996116861802555 0.003681981497122622 -0.008910314403296839)
(4.994909706942807 -0.004500085090082033 -0.02520013731713717)
(4.99572249820763 0.004719723768593277 -0.04844626985631993)
(5.006883359408771 -0.004640674730583124 -0.129776054813923)
(4.998034257793498 0.0008720176360348827 0.001680671061664274)
(4.99581470733955 0.005831936905093063 0.01395189483420733)
(4.982986141625918 0.005230595853567011 -0.006446723832906173)
(5.013398510147173 -0.001757651759142522 -0.009120068387698068)
(4.993256846739527 0.006175576235927403 0.008435628180205159)
(4.996701537355159 -0.005851720877501665 -0.004262089862160407)
(4.98979302523612 0.008962227160269386 0.007804649351095367)
(4.984297429738797 0.006875130562284593 0.008109416370973723)
(4.996791106122646 -0.004730965032044756 0.005982034217788614)
(4.995171864344664 -0.01169393967405351 -0.168939522954161)
(4.986453099896156 0.002835794246821026 -0.01385538307414855)
(4.997188697287691 0.004152287130334266 -0.004002364751951445)
(5.00163986574919 0.01407697312729021 0.008048098766521032)
(4.99846947565612 0.01729530971496243 0.01156931129392626)
(4.999024112472314 0.004706233123472183 0.0117328902178697)
(4.997413086486977 0.003328530385019396 -0.00363864023836144)
(4.99551937438272 0.01092659179347008 0.02095674487137622)
(4.996004170814551 0.0125529091855858 0.01186349044033991)
(4.988698738081135 -0.002005419933400581 -0.001235434455152948)
(4.99957013208351 0.03588247700628428 -0.000594867695594374)
(4.991734626045427 0.01455131979549271 -0.01520774758003398)
(4.996859577982361 0.007012946485892429 0.04664072703299754)
(5.001542123650464 0.003016118411709979 -0.001483226119939758)
(5.006108556479399 0.008068186250297904 0.007752617242110015)
(5.001735142640361 0.0009807973189852705 -0.003848454822432271)
(5.000879608048877 0.0006840358069317467 -0.002871494510122958)
(4.975287341100755 -0.01119927790500544 0.02841772628003746)
(5.002317306058081 0.01815924826297621 0.01579059921185265)
(4.998531080642438 0.002053806487899176 0.0007094630596422872)
(4.997143014638038 0.00815038352720125 0.006112884031067033)
(5.0018806086623 0.005895361815827228 0.006206595304987466)
(4.998439648657988 0.05081516501161359 0.001916530937144649)
(4.974007578877019 0.007176757173196218 0.001089861770343332)
(4.995481638687963 0.01579803601805728 -0.003722916872779355)
(4.999381443017046 0.006841211275361578 -4.100769893240999e-05)
(4.998021112394451 0.005028963566165221 7.296163764426194e-05)
(4.997887376835081 -8.844200433522499e-05 -0.002251871070634169)
(4.997383057483177 0.005043735592945414 0.01071749903159083)
(4.998714427757768 0.003305890303177727 0.006634548623932267)
(4.997105660092154 0.0103705043215039 0.003288349460712937)
(4.991657116355046 0.01295145892123218 0.01487395525242495)
(4.995423452096182 0.01726811859501531 0.01432850419679193)
(4.961649024403662 -0.003233164035628712 0.001535000603374933)
(4.99760418525121 0.01708084702587051 0.01368279482154457)
(4.9985220876649 0.002118643768557944 -0.0007049195121118175)
(4.998279837581531 0.002983359586153313 0.00421034854100457)
(4.997948024952181 -0.0007997243185286027 0.01000232562217121)
(4.995988797121763 0.005736179005923668 -0.002230228804226438)
(4.996453903472723 0.01345393783115938 0.01696339102632858)
(4.998562295170748 0.004287753844696297 0.001028710209811644)
(4.999103092227053 -0.007872487123141887 -0.01326746004334571)
(4.986121493566822 -0.002380675086198965 -0.006989342726692962)
(4.987157601295281 0.01351944860269067 -0.009623177022536183)
(5.000200054845783 0.0003469152893114547 -0.01771539647526078)
(4.997370132727341 0.004963388764185692 0.0001742473719848294)
(4.990226087119384 0.0509868719377873 -0.004873027155870599)
(4.98897787125019 0.00652251710904761 -0.00330521246368974)
(5.00479684620373 0.00110235303481474 -0.0005237996705183986)
(4.993139474287125 0.03302555503019042 0.003088510283446027)
(4.991861437456603 0.004600341862979568 -0.005890118480414308)
(4.998484083006763 0.002427481508218341 0.001067845836060061)
(4.994825221931152 0.004028223686499291 -0.004098951030028584)
(5.003180375093545 -0.001399310823107726 -0.003769636654115408)
(4.987556438898806 0.02686091404278653 -0.005718850663531653)
(4.995357245769261 0.002147773875102204 0.0008277460662785266)
(5.049096997031376 0.02505155624331628 0.003700662911786877)
(5.003366644569851 0.01196334759648524 0.006206728755617734)
(4.995107262475839 0.00914428836902673 0.005211836847391757)
(4.998340185223657 0.002144469483679507 0.001469769805616488)
(4.992895588916396 0.002370441785321485 0.005543378633200105)
(4.997085417081591 0.0005487626786752743 -0.002032951827324983)
(4.995585685261995 0.004564339709702944 -0.00336183623789257)
(4.99841423708 0.03408814121345955 -0.0008452170663316307)
(4.994435177855041 0.0006836572265402634 -0.001141767489794553)
(4.994811825770849 0.001619583658582776 0.001209578581153397)
(4.999028840165883 0.002416073843044518 -0.001082007927061178)
(5.003707406152515 0.01900729807437972 0.01354098603931145)
(4.997026828126726 0.01744541079367194 0.007747523821701601)
(4.943271118968408 0.06915634580322813 -0.004210752901698856)
(4.989412028677667 0.001045400750306582 0.003599197236472919)
(4.986156865889107 0.008227546446490649 0.004853304942213392)
(4.997833745727336 0.04446274723003069 -0.009253418471429666)
(4.996109991921924 0.008950467137475779 0.008343514671408337)
(4.980171426453871 0.0003007526978692854 0.004123975515218615)
(4.991223983613139 0.008702669369705176 0.01568488775399017)
(4.978314993544895 -0.002496806952479044 0.002161905447905292)
(4.995150678194698 -0.02670922362889038 0.001051686956065142)
(4.987839835593866 0.03816520750188981 -0.01174802086115438)
(5.002044637782198 0.01899819954187953 -0.001278047434285111)
(4.978932351921317 0.006554134605477633 0.003924139874269112)
(5.001831091732656 0.001565701931279166 0.001316209798024438)
(4.958361463839297 -0.0008855676102037193 0.0004203277464660445)
(5.003270218240481 0.02109575923914197 -0.1582725597829968)
(4.975382727246722 0.002066426880182156 -0.003134166163014441)
(4.994582848007142 0.002093402265698521 -0.008525173311282953)
(4.995050846349079 0.02262170903032509 -0.0001476943195637634)
(4.997212503389284 0.002538077431765881 -0.007955928703856998)
(4.99132391546232 0.02078496625580668 -0.007434939779841108)
(4.991492398090777 0.01115356980000433 -0.007270245526157361)
(4.999901000663552 0.00231267032941709 0.004178968559174181)
(4.931239499935979 0.003778615039965932 -0.06960213002851931)
(4.992901734529484 0.004865236003575808 -0.006145966827277382)
(4.998503387165286 0.0223952367035013 0.001613114050124264)
(4.999636409376681 0.002338329976319675 0.001202395415800246)
(4.997346086471214 0.002516474117670214 0.002750914919317878)
(4.991089632672493 0.01400693344197703 -0.004377941491767554)
(4.995077769048294 0.005833469115568206 0.0009291212313216629)
(4.999355847204832 0.003840191599945939 -0.001329288239745765)
(4.998290686911155 0.002023549707109454 -0.0008255694448595352)
(5.005549582764286 0.002820193887304153 0.005905051489510278)
(4.985576655315922 0.01248001462006144 -0.007262392336641128)
(4.998987838408703 -0.004820545777158192 0.00478534691046691)
(4.971908718445158 -0.01698343399727199 0.006267310245548907)
(4.985287042852936 0.004160985234114877 0.0006508602775380813)
(4.998020950467343 0.003913117409658334 0.001977719582403021)
(4.998693128901289 0.003106903201684423 0.0007925695519232044)
(4.998874753579625 0.001295628370807574 -0.01331974426139583)
(4.994246559416804 0.004107178995679425 -0.007602600687818022)
(5.000410387732344 0.01373414001873966 -0.002287634164690811)
(4.999203222970976 0.002548926928523313 0.0009318809039914929)
(5.000208801026107 0.01853597197893899 -0.005936423256179917)
(4.998440770649643 0.004531166874682694 -0.00265110576343845)
(4.997611917622905 -0.006357930142957481 0.007878115104463642)
(4.997521428852116 0.004011573835906669 -0.003371745427897366)
(4.996292947128121 0.01169789760128507 -0.0005971792593540457)
(4.975988075624537 0.002000848367115585 -0.008365020810212195)
(4.996913560918505 0.06923600853042917 0.002986003729595873)
(4.997859293396425 0.002894851594066358 0.001536546113501523)
(4.917855784545285 0.7597223954603468 0.4592067786111411)
(4.978495290540014 -0.001670893614980616 -0.001710443543531144)
(5.0016394391541 -0.00505125393687128 -0.01695801624691026)
(4.997035978567744 0.09837782671767634 -0.008372560772720869)
(4.994794499627428 0.003178155094337031 0.00339025323043325)
(5.026338896127847 -0.004671449743436342 0.04304998821195426)
(4.998050083037961 -0.002342867505922538 0.0008679036919833779)
(4.981165845218849 0.0008619252649528946 -0.000822741949254093)
(4.99851510280432 0.02572263103687359 -0.006234861483927945)
(4.997882056650988 0.01261938807505247 -0.0007682152381797034)
(4.994367778783515 -9.391763731335628e-05 -0.005874594579872934)
(4.995563543544403 0.002430092010022515 -0.00203707076454726)
(4.956669966992179 0.05055569735632895 -0.001458519800721328)
(4.983746503554575 0.02595804055703875 -0.09583616415855235)
(4.995994958745591 0.002024460378267668 -0.002047497714884494)
(5.003259686355389 -0.006090198999629492 0.00356706608547685)
(4.994873738471414 0.002875540169398859 -0.004406669974718344)
(5.003658325735847 -0.001642241024456712 0.0008406885702792777)
(4.997099847389084 0.002527777473331229 -0.01344226784753868)
(4.998969503426702 0.00206022073260395 -0.001849388313759477)
(4.989720524042003 0.00997557945152213 0.004265974617968874)
(4.998403161032198 0.002966712097835211 -0.004508638694826463)
(5.002148780173966 -0.03993180427895827 0.01167571963658694)
(4.998545072052917 0.004179015474596814 -0.007575860009208364)
(4.996759779879277 0.003484333373874943 0.001379260490553622)
(4.990845225817631 0.005817871655275594 -0.004993770094718269)
(4.999194050802538 0.004077075987993719 -0.001002644407417118)
(4.997093703678419 0.002859665015951782 0.001570325956605552)
(4.997133181515395 0.006505996278315123 0.003304934457649222)
(5.005303512739853 -0.003950671747115647 0.002223787604565627)
(5.003716314323956 0.02552410536761945 0.1274219672566646)
(4.991335643367023 0.02131731969996213 0.01747687003617134)
(4.999041230308953 0.002428440133348831 0.001374047089953832)
(4.999822624678276 -0.02472339833833525 -0.01838835173190173)
(4.991275269418492 0.007059677979771565 -0.003689483711956876)
(4.994232773071311 0.005028736209831187 -0.003486498150778691)
(4.641276908305338 0.03544869483206205 0.3373431606578617)
(4.997820030782774 0.004195455491601852 -0.002448629359237227)
(5.003611225061141 0.01584677556808859 -0.002194417130752253)
(5.000982054066743 0.005734121718968382 0.001957649683802626)
(4.996545976694791 0.004691381102498002 -0.002024861138555491)
(4.996673741624657 0.003299180249394858 -0.003032971613949799)
(4.992274075807428 0.008941468235703166 0.06238871689864521)
(4.990228148228083 0.002880244406092466 0.004871567064799639)
(5.000695900746966 -0.01341738631362009 0.01071459016102549)
(4.984167832093093 -0.0250557074626023 0.1535307803887689)
(4.997503916182703 0.003015724658971602 -0.003504930648983347)
(4.998508259412491 0.003377261135613875 -0.003119306459583006)
(4.997052987211188 0.1266862873007077 0.1018553804373158)
(4.996988247854621 0.003664008653070213 -0.001417738197780586)
(4.995751122442338 0.003496505425651122 -0.003262567432594008)
(4.986705272381498 -0.002675389342304816 0.0008390430304575397)
(4.996837471468095 0.00976409160278539 0.04791540741956901)
(4.995669933266498 0.004361034434519374 -0.003019205412075693)
(4.997218582018164 0.003686664123294813 -0.001760579527313816)
(4.992676740241184 0.01598316317775889 -0.0008498329030399802)
(4.998080111316719 0.006184156219902676 0.002973220598613789)
(4.986699947582568 0.0003361005135759476 0.001149816401307108)
(4.997262084871578 0.0007002141706460802 0.00226636803241876)
(5.015593739456796 7.672214428007534e-05 0.01292082904990423)
(5.004819652191468 0.02262855704960591 -0.02392548281956254)
(5.002097184861134 0.006040171089369155 0.002409303935134819)
(4.998234248332068 0.004931116811478221 -0.0104232381424036)
(5.00061763644664 0.005739843901363246 0.007775587494355792)
(4.998231889425365 0.004521073130191848 0.001447166244443061)
(4.988466116924296 -0.01768824466304468 0.0008621877996675895)
(5.000667974770035 0.009521041373065982 0.0007138353048030616)
(5.001192824240167 0.01232677038657413 0.006500184091611108)
(4.983845185217787 0.01475329541836159 0.008189929030193093)
(4.995153012427762 0.01206788413892079 0.007898566455070206)
(4.997570092282306 0.003763648965232499 -0.00375079091053775)
(4.995828638928346 0.005005306333484144 -0.004184369136953844)
(4.994558482772387 0.009663688619627422 0.009003239937249429)
(4.994121114174893 0.01561949684725241 0.007739119799751346)
(4.99537569353824 0.007257845098109538 0.01272909661020386)
(4.975990197607779 0.00213724592290555 0.003268663520871383)
(4.998059836398983 0.002978851406008117 0.001756140577710852)
(4.998592061053523 0.002818429107636444 0.000874526164778675)
(4.998516495190805 0.002656891757314457 -0.001095826754914936)
(4.989066465176302 -0.04418502921116269 -0.002387748294843202)
(4.99354097059642 0.005950486878953659 -0.003920010958546962)
(4.9965443975802 0.002848534910924462 -0.00250181739742072)
(5.000246478069305 0.08319626465958913 0.0834543540065595)
(4.999911445437839 0.004478164634177386 0.004209927287511358)
(5.003935540548672 -0.02574864289372738 0.001036996535879722)
(4.998536631439894 -0.009533969030254495 0.001898975589076148)
(4.991380994820184 0.007048519452331085 0.01400365729640989)
(4.999836887489016 0.002502060324824535 0.0006616109888054665)
(4.997214268036782 0.00977765793790528 -0.0009896243606390268)
(4.993355035533557 -0.002969116202467847 0.007196008052160655)
(5.000008505411608 0.0001431002030334866 0.002245346419381422)
(4.94354936067089 -0.02156461159589725 -0.003196120891603919)
(4.993850142191063 0.001203148635808506 0.001036885581792633)
(4.999983541764012 0.006022861209319119 -0.002681358134624224)
(4.995119190617117 0.00690088975133605 0.1073145247217465)
(4.98192425645343 -0.02656891791611302 0.0336468205927782)
(4.99982131055266 0.002657885653330667 -0.001455132466899502)
(4.999325170673731 0.002789179586603059 -0.0003838121672785688)
(4.995166854475298 0.004693918749030763 -0.002214848470972595)
(4.994580240986901 0.004852340689902733 0.00353618698105578)
(4.99685498218147 -0.0007117460949958434 -0.001753006403995513)
(4.99630917694316 0.009726060434356854 0.001659191575286426)
(4.997167111444528 -0.01496476436569373 0.02816229349184925)
(4.994232571176489 0.0007637895555407002 0.005972953607764909)
(4.992210966363325 0.003004259486146281 0.00244637531943076)
(4.989931460811269 0.03300035345103709 0.0190238347431804)
(4.996532595201848 0.004442034335102621 -0.003573997911355643)
(4.997192024506273 -0.00272610230071707 0.004151034645157936)
(5.001819140934986 0.03262980166492833 -0.009001527510884269)
(4.997770704165585 0.003548838556138807 -0.002941209228942812)
(4.985209733611384 0.05041469103579216 -0.08159345845356843)
(4.997977209143663 0.005882547895440497 0.01010922747438599)
(4.979129599989983 0.0006776153693201515 0.005961033891845876)
(4.998427852843575 0.01024128267288643 0.01298598778379447)
(5.01546143395209 0.06885728055344242 -0.0002053622338509789)
(4.994676018572235 0.006379464206262014 0.007237406080846586)
(4.999609403941975 0.007867267313368072 0.003917077652327177)
(5.000445378275209 0.003025798845733163 0.001813862787385944)
(4.99804257005851 0.005034780323922034 -0.006142117368635939)
(4.994564048915919 0.003693945863079451 -0.005334015841683851)
(4.995018416190516 -0.002988708504018759 -0.00951386581077635)
(5.003001288905308 0.01495978580001927 0.002118755421872802)
(5.000774112502457 -0.003274993460679789 -0.03999362071271363)
(4.996928443133453 0.002249743077589778 0.002729949776323023)
(4.999786216082462 0.0111801225817041 0.0007038680930276278)
(4.998740194360637 0.003764790055992426 0.001441308154640489)
(4.99493129940993 0.00405274846089358 0.002868517794316551)
(4.993218156197946 0.00498547762122246 -0.002719556731042239)
(5.001580898883801 0.008256446506701622 -0.001673154045479424)
(4.993956821448231 0.005896030195711147 0.001557482977547056)
(4.998844490637573 0.001972440880206189 -0.001760623398482278)
(4.984748895100127 0.002744137236361133 0.01746712471456582)
(4.998410778957004 0.001541654475224465 -0.0008842957830143912)
(4.993128797771129 -0.000611525518592986 0.00235332776872568)
(4.993126847905374 0.005567572013990977 0.004376054150220444)
(4.99951407789921 0.007265479393200422 -0.002856399349376766)
(5.003006544761597 0.01137076889304988 -0.006076805421545573)
(4.983054790542012 -0.004610900273291988 -0.002591928789576748)
(4.995142098469116 0.008971288919350846 0.005723058807707697)
(4.970790352016675 0.003781217588172636 0.005465811804655931)
(4.998731478635991 0.006103779911973249 -0.002010035321299954)
(4.993803887327589 0.0112044385257044 0.03579237274708588)
(4.99223769420207 0.05155628552521001 0.02544250820352978)
(5.003132886212168 0.01992344267403708 -0.00326007013327253)
(4.996332257532646 0.004523012131655534 -0.003074031450147894)
(5.005409284168613 -0.00563284286933272 0.02275906749951443)
(5.000173473055142 0.002085233952344963 -0.001104950574202816)
(4.999371964645335 0.002562343492706524 -0.00180414115836863)
(4.996369982809553 0.004228349943296705 -0.004231532946295114)
(4.992547094878237 0.001151537483161614 0.0005026101646318009)
(4.998488273316578 0.002166035819284155 -0.0009499967309430034)
(4.996147008427712 -0.01184438115157223 0.0002282871290782806)
(4.997053389010209 0.006743309696029439 0.001085001270235101)
(5.003795715306824 0.006239518817129318 0.005000413376069789)
(4.997142294742283 0.00356619300315149 -0.001959728907531873)
(4.99857116832124 0.002641282879817748 0.0008191787526516913)
(4.996657163741613 0.009882769510193096 0.003987037575904522)
(4.993795368952731 0.0006442103179719403 -0.001576094547008063)
(5.004543958018493 0.002192882433309473 0.002650484911299078)
(4.988415563797143 0.05815317776599851 -0.008406215761955625)
(4.997697280214913 0.04324219066664749 -0.002565821843774148)
(4.997805569230293 0.002002833324278722 0.001254868581591608)
(4.992207056250604 -0.001361202462870055 0.04538317763017272)
(4.996698395587499 0.003096301315513053 -0.002915933626209426)
(4.997542699825586 0.003735341794195701 -0.003346725169820772)
(4.998965842812026 0.002391445054243871 -0.0001991611015814164)
(4.996549102157155 0.003863123661733387 -0.004146721423767697)
(4.999952983742348 0.0007322506055996509 -0.002245336552429641)
(4.991368646319621 -0.0163389568165603 -0.006491215055896925)
(4.996318887473187 0.003685629363970289 -0.003704747432651547)
(4.997918197984252 0.001026674475926748 0.001233949379524597)
(4.996984691743768 0.003032019737163757 -0.00304940776671832)
(4.999298611798994 0.002640539750222305 -0.003968083510450555)
(4.999678944460459 0.003092104383053794 -0.00129497177543125)
(4.968043397484158 0.0001970816511430811 0.0006941545525187727)
(4.998335826917295 0.002008564902217388 0.000275512492188502)
(5.005521664123575 0.009191302430423376 -0.02915753178309794)
(4.996392198196217 0.003873367828918279 -0.002309012150053188)
(4.998814918931082 0.006487795440425527 -0.01489164647534623)
(4.996918082895837 0.008535165414490505 -0.003171012321299941)
(4.996309656535108 0.006553692909165769 -0.0009815773304068509)
(5.004443601378282 0.02339312688337224 0.0135116872249868)
(4.918909876461269 0.004619054210006915 0.001060453602215401)
(4.993375039744709 0.003494066720746082 0.004285421433258222)
(4.996653224470849 0.002918944737114093 0.0002687933738701216)
(4.999146797018843 -0.0003879560719021899 -0.003394636026001023)
(4.996670225321397 0.006595858152533765 0.0009824651102410841)
(4.998825573952977 0.01412914643647354 -0.01184394048428892)
(4.999872640781485 0.002583297307059081 0.004228747531307242)
(4.993341861122053 0.008702124835041422 -0.01367784943259578)
(4.999197736811542 0.001393064607714897 -0.01681748153585075)
(4.950843017606279 0.002991639293050744 0.001705508456804426)
(4.999294278349464 0.00460351331118518 -0.004878781375326177)
(4.992140058083456 0.00535006895916249 -0.003583160275389701)
(4.997419629531532 0.009702871546057035 -0.007250376727435999)
(4.997807362050003 0.002780778648584547 0.00175403624504431)
(4.998279504474235 0.00210467204067514 -0.0008807886258325498)
(4.995096872646712 -0.0002873218056054426 0.005329012917548812)
(5.004302234778871 0.007847595110985746 -0.002229317891978462)
(4.999326175705987 0.001454711724018325 -0.002519519324547308)
(4.99511701763633 -0.02087594372265238 0.01580349300978687)
(4.998369262513762 0.001686706749270713 -6.079074562125126e-05)
(4.995706374736992 0.004400297105758668 -0.001697595385100181)
(4.997114621518066 0.003376183860973062 0.003377262832290285)
(4.968578305418351 0.001336612557190372 -0.004308237685485345)
(5.001667704484539 0.001845512546217382 0.003154831297422285)
(4.99870937767269 -0.0004576245366906032 0.0009560837207342361)
(4.998129847505584 0.003874061506110037 0.0007841325749134719)
(5.002453720030589 -0.000227074153654127 0.0004977513103334886)
(4.997042026345265 0.003978189461877867 0.001649163509045974)
(4.996661158809531 0.005926712181818305 0.002484206594790791)
(4.998506661836578 0.001767563717274027 -0.000941355922846997)
(4.998232280783641 0.03085824998614038 0.05840238455889264)
(5.007398612258432 0.005997702427592381 -0.02312544552002433)
(5.003192051613307 0.003145500056179032 -0.0005483479883335611)
(4.998515834046517 0.005997332892095864 0.001115924331318263)
(4.998430878058767 0.05411854764671541 0.01227676550848769)
(4.995214433926549 0.003123686673042929 0.00185269443749839)
(4.992126517347259 0.005948112921616663 -0.002976545960958266)
(5.00641172778588 -0.006003400234061316 0.001063602828590584)
(4.999615006367208 0.01551894160405094 -0.1725315802861505)
(4.997260690246172 0.004897773637098173 0.0008960933103940687)
(4.998153767924252 0.003623203421784295 -0.000319702928502346)
(4.997895466122642 0.001022582440332793 -0.004198051432684079)
(4.990522276266336 -0.0006434947411008099 0.01522153581598754)
(4.997022806256136 0.003623409956353577 0.001512824668956765)
(5.001606305894445 0.0005133649881677479 0.001641383323609642)
(4.99514925676131 0.006014211312511789 0.00465080422843207)
(5.00195984139209 0.02586738147220458 0.0009159419887556133)
(4.958837766652579 0.0004292290865526578 0.004015260317977078)
(5.014424781308799 0.004874206837120079 0.007065448331632691)
(4.998756328191894 0.0001936947686102261 0.003119308020471928)
(4.993150615802812 0.01137893499280397 -0.00177895738789061)
(4.996641109808749 0.004746383958091407 0.0009512164442566077)
(4.997788996478727 0.004248026590491512 0.001033019750871105)
(4.991846226031343 0.002439670515135406 0.005870532417019473)
(4.998418463788712 0.002414939244317147 -0.002100722010740518)
(4.997527717343156 0.003519695221678267 -0.0001182470509018663)
(4.997631976465724 0.003375004398612076 7.595362475996916e-05)
(4.996288337053984 0.002127920927131168 -4.130865190237151e-05)
(4.997785141607122 0.003503524175774817 0.001395992672426494)
(5.001553108525857 0.001977313846977584 0.005424399069474253)
(4.998573348661987 0.001096346047383219 0.0001759060352274846)
(4.998099601542632 0.0458150635869682 0.002133485854001154)
(4.998687302778358 0.002343617025550685 -0.0009330271343212159)
(4.997736784411435 0.003616455188933904 0.0005674476033481039)
(4.998159243795523 0.002559967269696043 0.00370988281261972)
(5.021216540760361 0.007740996380174888 0.001019040607595354)
(4.995839394007525 0.006170815323643388 0.0008434247407057579)
(4.998791345955739 0.0412841037637668 0.003934630318180615)
(4.977581525491345 0.001696994600340682 -0.0004305091021785)
(4.998553401814925 0.003328429450402374 -0.001942488241807592)
(5.000890621165304 0.0005499483976680223 -0.001733476551407761)
(4.988835257231575 0.003110983080606756 0.002115752025640716)
(4.982979648112215 0.02558342022663867 -0.02098256449560711)
(4.997620303063274 0.004926498523862241 -0.002257741749547828)
(4.99716840424069 0.004573821869676829 0.001053828228441455)
(4.995782025572653 0.002760015970895059 0.00211195026582895)
(4.99689230412073 0.004097767965833447 0.001045935406177019)
(5.00138834110022 -8.026471737694802e-05 -0.002520215610317907)
(4.998682268071612 0.002721814539104379 -0.001634225475819666)
(4.995850015917426 0.003874000692722406 -0.0002091643049085491)
(4.997801125879734 0.003122534884919672 0.001183830973151118)