/*--------------------------------*- C++ -*----------------------------------*\
| =========                 |                                                 |
| \\      /  F ield         | OpenFOAM: The Open Source CFD Toolbox           |
|  \\    /   O peration     | Version:  v1906                                 |
|   \\  /    A nd           | Web:      www.OpenFOAM.com                      |
|    \\/     M anipulation  |                                                 |
\*---------------------------------------------------------------------------*/
FoamFile
{
    version     2.0;
    format      ascii;
    class       volScalarField;
    location    "0.2";
    object      p;
}
// * * * * * * * * * * * * * * * * * * * * * * * * * * * * * * * * * * * * * //

dimensions      [0 2 -2 0 0 0 0];


internalField   nonuniform List<scalar> 
19631
(
-0.04505248363424096
-0.09428006903772136
-0.424853137579467
-0.6081393054511478
-0.03425739007951791
-0.3511432698717659
-0.08625583360502408
-0.0909162431304955
-0.07086515250213798
-0.1658796335548323
-0.1176455888287182
-0.1410039368233903
-2.18150421913736
-0.1615960527208178
-0.1148476042347757
-0.03069860417786874
-0.6283608803201327
-0.09908808311981297
-0.03113519955826685
-0.09154517108277815
-0.07229945555281776
-0.1523165167473391
-0.1082539887118898
-0.8373716032807615
-0.1522852703584541
-0.1274216565679266
-0.1519638899209452
-0.2069980923833417
-1.210550428000138
-0.1553674639054397
-0.09250913573651004
-0.5878925630066129
-0.08269174891086715
-0.1583387789381945
-0.2136404213920473
-0.1399131341281418
-0.1950714663336635
-0.1165763141705439
-0.2348512400430045
-0.2673827089788777
-0.7378252472311978
-0.7269459948369209
-0.3022355328723065
-0.5785805288789652
-0.2370594965000605
-0.5378316571852176
-0.8719588207008597
-0.5230834193052857
-0.268476862336282
-0.08059060307208897
-0.05011063174280145
-0.1287751929825704
-0.3756717740904221
-0.1607754738307523
-0.1098450705236449
-0.48559747276264
-0.4226475399362162
-0.101096307601477
-0.06791054160813521
-0.6673227993737132
-0.04509220311733018
-0.2508497462528664
-0.8711527770591522
-0.3420809454069944
-0.3438798693624844
0.2081603616704516
-0.2064145577555644
-0.02034328460252385
-0.751974723335074
-0.06729791146232683
-0.691685564812352
-0.5928622210000393
-0.2587846444482638
-0.08775069654025065
-0.1007094787384908
-0.320504434424759
-0.1478873192135212
-0.5171311093278588
-2.254319523635893
-0.1250109749008357
-1.652448177086781
-0.2292294954924028
0.2106068387266262
0.251740420567577
-0.378103655037631
-0.4044833860911486
-0.5047068701299156
-0.7005798530238933
-0.5969620417767918
-0.5465886278620308
-0.5635241480489892
-0.05047934800876521
-0.6030610326380786
-0.5992746247395732
-0.4253734999598919
-0.4699599652517787
-0.2480286802459436
-0.03278585438162709
-0.577798130569918
-0.3549776773128718
-0.1290751803744877
-1.497596137165853
-0.1190899075439671
-1.785084179188459
-0.6554464786016181
-0.6383966368634725
-0.1738832829444764
-0.6432554987139721
-0.1523043686850402
-0.02205053822212791
-0.2061496138514013
-1.305061924869905
-0.1177988256231694
-0.5431780923599546
0.07160017021610682
-1.237455179274093
-0.4429321985309145
-0.1152763090545048
-3.02816148670246
-0.03959444650230147
-0.03406684237688894
-0.1373350322666283
-0.1645852316307937
-0.1380289471188516
-0.1615406669864909
-0.1507237398733021
-0.06860288256778857
-0.1404424154521873
-0.1083928978420973
-0.1250906530719141
-0.011488151259324
-0.7368556751219325
-0.3932751500731725
-0.7755569981998673
-0.1884370805366798
-0.1596079930275313
-0.1796421406326635
-0.1402128690078004
-0.1958546566153593
-0.1868849329530978
-0.1037756935853314
-0.1828264708041395
0.169814070485442
-0.5095356249860087
-0.1874874192559206
-0.1981215825953848
-0.1279727604403798
-0.1423460032512326
-0.3839940436087612
-0.6916694211168164
-0.06962096978665229
-0.1369506698938965
-0.1262962701983379
-0.1387048382732158
-0.09802129084766417
-0.1688536339801766
-0.433825848896167
-0.1562877565542593
-0.2357551241129239
-0.1657888004006188
-0.04334999190422122
-0.1197930255108549
-1.037574917971685
-0.1321632316673596
-0.1230353275076942
-0.1348519631081279
-0.1208334993639499
-0.1001280989722897
-0.1176919410738893
-0.3608248973068615
-0.171071416713494
-0.2619293175249007
-0.1617956701781954
-0.1140213053452722
-0.1459060879942272
-0.1681380881502137
-0.09629497659802307
-0.7435765725896052
-0.1426492288694492
0.0743399144611637
-0.3916017411480393
-0.0922385936238909
-0.1136305636661737
-0.08813601073074336
-0.465994800510912
-0.6961888826825727
-0.3937450455708469
-0.01758347530543641
-0.1280660676300605
-0.1663207936708578
-0.1363455873292372
-0.4903027189840799
-0.2032306396680953
-0.04922985264935285
-0.9387602919450321
-0.6952055782297891
-0.1173187862027022
-0.6138304853137588
-0.3309888214987324
-0.5580679924096454
-0.1085371865575048
0.05461222953658557
-0.9057705159974596
-0.7918303222963672
-0.1020392527467803
-0.09797044126841628
-0.02697675478044735
-0.8860969815329093
-0.09772050224667131
-0.2513177053721798
-0.2644428449074533
-0.1380692724728542
-0.340782207032349
-0.08080655001344002
-0.3859185755502121
-0.5464785641670357
-0.4909184762582974
-0.4632396540924187
-0.126230667037085
-0.09987827950899181
-0.08230865020800958
-0.4960377658000066
-0.1300733904360222
0.2965419703817971
-0.1079617818984274
-1.713479445541063
-0.2984801389747112
-0.2015495386014369
-0.4012060439971186
-0.4154971605334393
-0.7322803101950158
-0.6340498725805469
-0.4507237329302461
-1.202306329089128
-0.03427429677686688
-0.2192096409705829
-0.2427360725626759
-0.4418543631529711
-0.5025786045825491
-0.4080989832503822
-0.1216479753252209
-0.1406118764392023
-0.0750508006438485
-0.04628504024466254
-0.4734699033703395
-0.5874771040384468
-0.1084403990996306
-0.4190763331683595
-0.7946383683172237
-1.683387806978482
-0.1757872795585798
-1.252730443107021
-1.007112342106709
-0.5071799027917845
-0.7432992666124489
-0.5980639826448441
-0.2522498777689365
-1.053986759564074
-0.02876668329114598
-0.5147745248978046
-0.1301135993737869
-0.7330942293884966
-0.4430670457897445
-0.5490109142626924
-0.1250614037467797
-0.2456331120208817
0.3483408031772467
-0.4409159904246952
-1.662008342333451
-0.4889203561937437
0.173322577905544
-0.1690537476800068
-0.4998725634499982
-0.1082730336735942
-0.02693296394906654
-0.3871699522737171
-0.6448052352544746
-1.565861356544378
-0.4090835653880072
0.250749675578445
-0.4141414154430528
-1.190055573544016
-0.3483240661260858
-0.336578372357162
-0.7074934683192279
-0.4747673614803141
-0.05957078002710652
-0.4011845338095986
-0.3392536808238166
-0.3186148956667304
-0.1722593580444747
-0.7983927223450312
0.02532910194175195
-0.1357047459819762
-0.03121614215809121
-0.3396577776986059
-0.6556855996383711
-0.9412968120590589
-0.4273678893675141
-1.335350004030421
-0.5298835568515919
0.129950945867446
-0.06928078450925611
-0.7768005326275652
-0.8011381910489461
-0.2129043301527395
-2.12179335235703
-0.06433169379425127
-0.08800195068060479
-0.183226959190902
-0.05761263573308218
-0.2829797901710859
-1.177210470262595
-0.2791275737644603
-0.1381268252989676
-0.1156000395157537
-0.09088747848464238
-0.08566278572184703
-0.3305230029092537
-0.06343323972730611
-0.4808479355077583
-1.560642694251399
-0.5446103277061841
-0.1367754494405667
-0.4650772261759719
-0.2040235179090982
-0.03600833245228993
-1.103659360089238
-0.5261191472292168
-0.3946177304554772
0.1047692197670676
-0.1262324494837364
-0.05424279100975575
0.006753563337127242
-0.04256045453500288
-0.08392251452540597
-0.6776377488739583
-0.5532775873700922
-0.1209204677432893
-0.2857062217173881
-0.1596304276784793
-0.5402502808436381
-0.2765189432843255
-2.647298285040964
0.6696478962121861
0.5571458245852778
-0.1055391281577481
0.3047467990418813
-0.3389980297221919
-0.3138255865754833
-0.3700682336510255
-0.6766435336973826
-0.5214311697480629
-0.6325410961844733
-0.3425098401192875
-0.9630837494511481
-0.180138725460571
-0.4946153703653121
-0.3414634976036355
-0.504219145552952
-0.3597027274971733
-1.150195771953465
0.1385168941534113
0.05934207354840726
0.1785275086467849
-0.2911419871972766
-1.679707621124002
-0.1526480220147924
-0.2545449500778217
-0.4792633986118728
-0.06900243370419909
-0.06421327921883024
-0.4643574243822909
-0.1668287904249917
-0.1377406783671176
-0.05865393976687092
-0.119768067487133
-0.09333879874160404
-0.3248666928684347
-0.05850327749261102
-0.7210908369028473
-0.09166719676684192
-0.0923678368408473
-0.04442218184407114
-0.6266265263594337
-0.8555022759441745
-0.09614931931372447
-0.07462270186929411
-0.07653041837345147
-0.6145059124468237
-0.5980319457216483
-0.016251275298112
-0.6560123281093312
-1.003448940061747
-0.3089995414260081
-0.01835858071305793
-0.02498840583509222
-0.5743364212925692
-0.1008419186887289
-0.340330660907543
-0.8136860014553786
-0.526598473822555
-0.03857856430508925
-2.699524216841307
-0.7974179838373513
-2.917138006274127
-1.488540251814439
-0.4154392443835327
-1.916425462718579
-0.7372317088807181
-2.664136509210312
-0.5831023162460471
0.115956787385893
-0.4105957085323104
-0.4364791891149193
-0.5689366823168257
-0.9007298089204694
-0.3572985846378166
-0.6724788714115935
-0.7358884297899466
0.02101989189430016
-0.1324000900427261
0.03586710224451702
-6.012614673804329
0.1957076846982508
-0.1639661532110855
-0.6763597117488028
-0.5520133888678711
-0.06551521410931259
-0.2421870027866793
-0.1190848924959443
-3.207019916862692
-0.5063994212969767
-0.1713727778321488
1.042334089299617
1.467665622743819
-0.06586952542190257
-1.916224350433531
-0.3780230719973263
-0.7536667358758781
-0.07109145004726022
-0.02702501967570209
-1.409339474605793
-0.4434121081538352
-0.03079802240530558
-0.7972147408191333
-0.03386669747907498
-1.804390376264944
-0.4411212564337755
-0.2163476344383801
-0.3600896031506166
-0.5057902107451526
-0.5022063377111294
-0.585915122283267
-0.02754677475893332
-0.02957688639112737
-0.1273456474506603
-0.4992068919690026
-0.3454727906472816
-0.156493201278915
-0.1185986371730899
-0.1284286674701714
-0.2138494122754163
-0.1156676883779579
-0.04596391769624419
-0.3056347704157962
-0.5633502516918003
-1.058291364116959
-0.02091225963984793
-0.1115918115184924
-1.232618024033674
-0.4640074585913582
-0.09779016169185492
-0.04878324128728437
-0.1669461077304926
-0.4280267258048922
-0.129835113184097
-0.5784849576218246
-0.8113335120928865
-0.2591638456213179
-0.7004775131522365
-0.5203632014469828
-0.07230947231047068
0.03956268139659111
-0.522218193521664
-0.2885244430464148
-0.2219692477914585
-0.193639298212396
0.09290368211545799
-0.1169960425818404
-0.06951103827781868
-0.3144341100180636
-0.02277516756704299
-0.01796044758236684
-0.7526522253540219
-0.0167311831308986
-0.3443101090415757
-0.3406603924248839
-0.4517425599602198
-0.5813650183826452
-0.2790541438534663
-0.1434591474275704
-0.5623121951692251
-0.02166145906833822
-0.1821738021811053
-0.09658647916201055
0.467390553878021
-0.0209172153222064
-0.05974963158736258
-0.08179516131340742
-0.7540009518653943
-0.1802674753867141
-0.5157969462093649
-0.09201358829764099
-0.08001720309291246
-0.07883446299464769
-0.1587611501893017
-0.06625508411433277
-0.6268049965063756
-0.864686332632714
-0.2202796181455818
-0.4188349051916846
-0.4381207049073194
-0.2693625103201367
-0.01803638503948788
-0.139509216592633
-0.4468602321437924
-0.8706171596472438
-0.4432113037835415
-0.07844254809047969
-0.07510211573710175
-0.08950816998103378
-0.07484223026125127
-0.09208190840996199
-0.1195121919093303
-0.06921180944244847
-0.3516580238181642
-0.8996809678319965
-0.6590532702642341
-0.4156050116321399
-0.6595989531912438
-0.3742331864335919
-0.2234165123681682
-0.3535446717377831
-0.2238278961681907
-0.4657044097887854
-0.1208594498643332
-1.802959632413436
-0.3486316096521391
-0.1968009481367785
-0.5409223040899603
-0.2103048444506868
-0.4326546583976798
-0.4660981848668039
-0.5536008378446198
-0.07836984618164461
-1.155657583632606
-0.2178360500652597
-0.261105051093258
-0.7649087009026543
-0.4913266043117955
-0.2691194909398034
-0.7206520430582419
-0.468950209607787
-0.3339475305682674
-0.5331535481530485
-0.6063833489904168
-0.406627538531266
-0.2851340457365669
-0.2478297342035123
-0.5055119124832209
-0.6556315614741174
-0.1218689913036551
-0.3394105876781777
-0.6643874798565184
-0.08793312703277603
-0.628733653923646
-0.03052400661913692
-0.7253795645254801
-0.7043292364112439
-0.02904278131738309
-1.218851517832519
-0.1849770287499242
-0.4814464994133641
-0.4943286462135357
-0.4599591512696043
-0.8156550567710665
0.002978971516147853
-0.5280651848719946
-0.3970034568204469
-0.2414190810993783
-0.2199072414400303
-0.25042782685416
-0.5703425857444145
-0.2478102419640232
-0.1673394264291953
-0.2275356030300679
-0.4950232689285948
-0.2691926731609091
-0.6190604810318406
-0.7177061409069758
-0.3191263010663665
-1.559066869642352
-0.2058809775342114
-0.1542850482623463
-0.3406443128183542
-0.3702205170484959
-0.1989756694409034
-0.1068535379665233
-0.2864181890394366
-0.4615056717055459
-0.4228843498409037
-0.4808175760624784
-0.3160863659383242
-0.9089669024581084
-0.7211536402391887
-0.5569065302275455
-0.3545117249348208
-1.053395852491872
-0.928017732692308
-0.8411941402754731
-0.5671468206549057
-0.3587138291429041
-0.172950111152623
-2.138504288122633
-0.7119544047517388
-0.4370947555922844
-0.1654038868553418
-0.03562850651275592
-0.1965003793534663
-0.3642459904949383
-1.084438639072169
-0.1204552902809534
-2.153246124477669
-0.2693359470461559
-0.3302376427158911
-0.6402967207567378
-0.919750154450154
-0.3189222240897798
-0.5006682026807603
-0.2139083258204378
-0.310892302284236
-1.655059136347228
-2.743154870520259
-1.492558518586276
-0.3195424836540873
-0.5861112584183293
-0.7603246369687289
-0.495518521822033
-0.855080607647218
-0.2467523449699472
-0.5872518318075717
-0.6016184247068387
-0.4421890185451978
-0.5929297529252865
-0.4687779892407047
-1.329764989503561
-0.4466342430927068
-0.4568731042322544
-0.242502714980211
-0.2162790962518849
-0.08884687857776064
-0.4934922338159126
-0.7016710579960856
-0.5386777595502044
-0.4077723505538977
-0.7432464841891928
-0.6409578248758313
-0.1641871429840716
-1.217826115337246
-0.1277604879645814
-1.389790094040191
0.02303513395885305
-0.3295464141302974
-0.2961236395337196
-0.4090414937831172
-0.5488132713726387
-0.2385582540663183
-0.6713261440832567
-0.4610008727932918
-1.74933524403299
-0.2993652888922643
-1.602841833490489
-0.5369369933804404
-0.9591247278358249
-0.944364604807906
-0.1821976812910694
-0.6507215712294343
-0.633623204191444
0.05490830531564791
-0.5243342288537876
-0.692352158912551
-0.4904603389393497
-0.1136976925069895
-0.5256272220669503
-0.4860083845034851
-0.5922458098789906
-0.8660417920184474
-1.405163419239578
-0.4635282978167647
-0.529117540878467
-0.420409481975106
-0.2012512400180772
-1.708844252633824
-0.6227348328064026
-0.4043458115721986
-0.839221933553402
-0.7188394636054097
-0.4636384752316559
-0.2640028804615345
-1.482120284197471
0.7701442274320192
-0.6766778082630773
-0.5945214936271003
-0.9554480193070866
-0.4487372241420544
-0.5243419227630366
-0.9701342255893851
-0.2199467525364762
-0.7913174549498744
-0.8242767869784883
-0.3895916700570326
-0.4308390945238969
-0.8316938550796515
-0.4967102703649527
-0.9328117171421602
-0.4726237336863585
-0.383906669453757
-0.7684465607430824
-0.1125542659216325
-0.02325403793308418
0.3195416904353883
-0.4454812251594978
-0.5675179215759583
-0.3159811625735627
-0.9958288177660002
-0.8933989030224714
-0.3140384833485044
-0.4190936526269348
-0.4029860544622899
-0.07164096543759071
-0.3219365501015522
-1.256762229453587
-0.2408974403309778
-0.2250353359289381
-0.9987334584257026
-0.2311417492815846
-0.4713764179885096
-0.4086483383699645
-0.4653949807078192
-0.757770870593049
-0.672090739274479
-1.283063202210224
-0.1423054415221457
-0.5209184689985679
-0.5719298167444947
-0.4478489954268263
-0.5240892551918288
-0.6189789278136506
-0.4237917885597647
-0.6597894472879177
-2.70952361619512
-0.4976313089103536
-0.4095305824375394
0.06065874544431721
-0.3108921420851861
-0.7861864866438278
-0.6866463642113831
-0.5652462282442509
-0.3318434387986475
-0.6752232579311918
-0.1115359580291352
-0.098616856499851
-0.5673024810688965
0.07169581692864346
-0.1591444771322491
-0.5970365673069142
-0.1273410927578493
-0.1793047958369224
-0.08619545664550721
-1.179041140794848
-0.3000886055989063
-2.200597691464806
-2.94668844788093
-0.135431536856133
-0.176415794509717
-0.3817974079862093
-1.837337235404711
-0.1569047320461507
-0.6105567523075911
-0.1985481086475129
-0.3257910987305665
-0.1481654956826716
-0.4592428437261023
-0.6616100004461691
-0.3744388164152834
-1.071028270895969
-0.5178692087159096
-0.1336174524139844
-0.6600305882800255
-0.533788667713744
-0.3803217132522513
-0.7674563286963196
-2.805790131758308
-0.8856256945087164
-0.6420665685390829
-0.5392284148323239
-0.6347592744488715
-0.7459008909069037
-0.5136218859376028
-0.09814372291908731
-0.5181206258384881
-0.08377376136259472
-0.2024289886010311
-0.4215433917815833
-0.4810016253576487
-0.9597435127716599
-0.524231032975301
-0.5098174317793798
-0.3550787780105051
-0.5029285549015899
-0.6738068537435983
-0.5892085824598365
-0.531461253613609
-0.06622879552214093
-1.101099785873927
0.3741106368253693
-0.2545507171785173
0.4172361383614447
-0.6228189332549325
-3.985256960028714
-0.3802105366658777
-0.1969487827368668
-0.9765490260859564
-0.07195221279621805
-0.1262814038260224
-0.3216121588312892
-0.2530667030719719
-0.1076279628564727
-0.03784601014601381
-0.2291067177422129
-0.3850177463571766
-0.8476787112693807
-0.3513159726663208
-0.4945894264317361
0.0676304354514245
-0.482900793113647
-0.5519736995619982
-0.09392181420042933
-0.09013339392998167
-0.5537035628226458
-0.6140668504081289
-0.2981054842170818
-0.005640390850750344
-0.6628839211017424
-0.08099263458062814
-0.2836224007077696
-0.4839187286404475
-0.3079522615546741
-0.451976798441146
-1.230662881585587
-0.3267914886327932
-0.2994672922180658
-0.3789715194470646
-0.7284931422860421
-0.471552511998817
-0.5307868672335329
0.2244066806239495
-1.521525153991206
-0.6328847631197522
-0.6722683474745664
-0.2608105486775111
-0.6003162384409105
-0.4230260180824085
-0.4586076836380633
0.07239168992535676
-0.08083213368381945
-0.6180042278286627
-1.122628734782745
-0.5791698446667292
-0.5560698611847134
-0.6242562679066775
-0.1137312272191645
-0.6598596787954112
-0.08882792955059768
0.4501656644316885
-0.8720796445584252
-0.1925994875176131
-0.08920067732924057
-0.6028525661442901
-1.488415686040848
-0.4932140749294861
-0.2129828021885781
-0.1316916608384419
-0.567851610314199
-1.742383060637687
-2.043377989578681
-0.3298256953541451
-2.538023060102498
-0.6367339535627179
-1.629394425488291
-0.6045628788916256
-0.4969510994735046
0.3333326271107082
-0.002223745199558596
-0.5437763928109592
-0.6211241691290822
-0.3193358839967134
-0.8684568645016149
-0.5561377669305514
-0.5767534691674089
-0.1155890123284658
-0.442811343124691
-1.014424689683734
-0.674961037275617
-0.7081687697610606
-0.9602961776444591
-0.6943923602640708
-0.305169418066322
-0.4702886757749271
-0.1670427348990669
-0.6891261560946463
-0.1532052282839308
-0.6554081545820151
-0.7305741767127922
-0.8287680695472505
-0.2146700454515654
-0.5168554345713312
-0.6296936071956664
-1.994967888967556
-0.2506542140037756
-0.9437420658697374
-0.9235607537232791
-0.3343697119625921
-1.130629123238279
-0.7073359951687463
-0.4581482044723374
0.05545895543353703
-0.4763850764765689
-0.9584241989257427
-0.6667635940219051
0.06612064964714341
-1.049997099505817
-0.463410689756079
-0.5120387032040338
-0.4557874419451495
-0.7028614147123528
-0.4849326797713793
-0.5879203938469403
-1.977807111006731
-0.4684136820213259
-0.08165266301703746
-0.09369941276181287
-0.1403939890696151
-0.08746968057560867
-0.3954393080644016
-1.97983021697726
-1.31972323828848
-3.28828832536578
-0.4278520175658043
-0.1770994901538395
-0.285227670446745
-0.5272422908648005
-0.1603235696529949
-0.2522250787782167
-1.48089132228237
-0.4286058214440719
-0.4926015724872623
-0.5460991377144159
-0.7699774378587588
-1.924032593457274
-1.957761954597063
-0.6548323848323983
-0.6827276167518987
-2.393277568449992
1.126094761728957
-0.644750735872065
-0.165221220341541
-0.6228578492893229
0.1057439616120447
-0.3459659764587469
-0.1510261092232136
-1.032061978935526
-0.176370695127208
-0.1738737826676355
-0.4541743398982426
-0.2014167246661097
-0.449355722650618
-0.9861307201674285
-0.2704161228764198
-0.7486813993052975
-0.1624692409104053
-0.6018013592578931
-0.4703994287753878
-0.7606652300799901
-1.260713780251986
-0.4283426020082409
-0.01434502226837441
-0.4981885588039187
-6.148072320550952
-0.3935420610058702
-0.755139013936214
-0.4935441437706921
-0.271134432228285
-0.7267242403088262
-0.6183623065276959
-0.09802864181936116
-0.1332321608308427
-1.362073805554565
-0.5200996885339862
-0.08687150818087794
-0.07444538990674081
-0.09955265431804351
-0.1632023280765011
-0.6146311122006308
-0.1876762876366353
-0.1463639060414343
-0.1768738264166198
-0.1187510160647433
-0.4394258224924587
-0.2842737430601799
-0.1192170017646447
0.002551302278629728
-0.4096676964594866
-0.2176148812185094
-0.6540471562075605
-0.925271723749162
-0.1116670806748656
-0.3263670554215288
-0.08646463205531819
0.01749857102973513
-0.3738991294682035
-0.05758129117648636
-0.05422636134805914
-0.2656204900048734
-0.1663918116052028
-0.1095304731527156
-0.1528091639667939
-0.9405570293396378
-0.1660469676179102
-0.4467987577716026
-0.09621328768846221
-0.4312950274645128
-0.4318712327630303
-0.02380498673946616
-0.1428440486348637
-0.09350086100862724
-0.3128587409595381
-0.9321293088829704
-0.1289688402833115
-0.7873796328588766
-0.1841235445248012
-0.9934998269353889
-0.3645476062279863
-0.11690615703053
-0.2860345416531753
-0.2798941231679867
-1.162358895868707
-0.8060785159216736
-0.386238923469767
-0.2244432449587946
-0.2502007612462271
-0.2674120331460799
-1.226436202637512
-2.337248936473856
0.01313572703379181
-0.287163879173814
-0.123645068193467
-0.6514429574911514
-0.1884854392230852
-0.3579699704837472
-0.473793330617651
-1.297286848373651
-0.8349571343963532
-0.2074428089043746
0.05412972872506402
-0.5367295400893665
-0.3188551286452708
-0.5012867080364301
-0.2265704552120637
-1.071850523693235
-1.55863376673101
-0.2058101409497436
-0.1943127216790954
0.1297218591061993
-0.5665786715915577
-0.5082308190609331
-0.7339380441577957
-0.1089537503895011
0.3420740974568667
0.4205651305006853
-0.2229140107143018
-0.112545032261163
-0.2684789360038123
0.05247138283922628
-0.1011004310694878
-0.4897810352141771
0.958163413378001
-0.303791786063478
0.2421937827718969
-0.9174469907406106
-0.4918972997783733
-0.4997643156181055
-0.9153787611902524
-0.7070832322230582
-0.2545814804941202
-0.7706179103003662
-0.7228003025196081
-1.279441656974615
-0.1435471062120116
-0.144667692755702
-0.2712257026365162
-1.02141619539757
-0.1654963037725093
-0.6407606711000654
-0.1428255933008187
-0.6862134377913879
-1.240163850851651
-0.1470695684770385
-1.940289192673959
-0.4066909293698492
-0.7528751547980701
0.000536356396574878
-0.2235382471885757
0.1391129332928251
-1.543465206231796
-0.1847147541061911
-0.09393904813662723
-1.317501333950722
-0.1662368718145293
-0.316637100559667
-1.005205699836816
-0.2931283545228968
-0.6176152375483834
-0.5110245101286788
-0.1723906130113039
-0.1089591806647917
-0.5673299867391451
-0.04956145957063993
-0.5290234719377814
-0.1376751664026401
-0.1368774750587288
-1.865529211622881
-0.4639481047572642
-2.957774922928526
-0.6373011033483255
-0.9238713850672274
-0.6687935153961825
-0.5132642070817443
-0.4124614986579989
-0.09699537389135063
-0.9767477182838201
-0.08459925759030414
-0.759032357243177
-0.1035857609032326
-0.06459194069369414
-0.1012580542435475
-0.08014902616515245
-1.631262514809367
-0.1130185720534096
-0.179176505131859
-1.296285675893821
-0.117943620837915
-1.533945631821641
0.7862934733927764
-0.9897044693275817
-0.09106126275339324
-0.2394101904743583
-0.09701361979941031
-1.628760124060673
-0.07982935353518779
-1.34597097757766
-0.3870720379285562
-0.3652101780954726
-0.1599713540793606
-0.02219575412263282
-0.4102865061348002
-0.3512299898272493
-0.321646051266503
-0.6307714700291328
-0.4479202590464312
-0.3166125746822824
-0.1912060974499744
-0.5362979380032042
-0.55287598239719
-0.1028015905164198
-2.075037099452596
-1.533768502981252
-0.2611381734595683
0.5612805029485675
-0.4556244877770187
-2.089601082914304
-2.154980481114075
-1.779418700492889
-0.748937371605602
-0.1670733092706426
-0.1008855152385679
0.02676725836213058
-0.1452895522322509
-0.3967773350194841
-0.1122057075725552
-0.4968429794391904
-0.2096771120390032
-0.08928366592109177
-0.572474237947581
-0.1167274081872282
-0.4295031682296792
-0.1584473732008052
-0.152926042258164
-0.07786956655068832
-0.1968959667157784
-0.4735815448361046
-0.05772800998123868
-0.1809808037256515
-4.087119745675651
-0.6542961328774348
-2.354448669607577
-0.6341671654793117
0.2169577058922025
-0.1468880789539238
-1.574785326987699
-0.3843320250627549
-0.1384915204686629
-0.07615617580183145
-0.1262242222885267
-0.2264865492034694
-0.1775364947075649
-0.08726794532687888
-0.4239989081554001
-0.374496136869554
-0.5147403932831222
-0.1040497475227602
-2.732301628846431
-0.0760317496823389
-0.4994089073281429
0.3628598155674906
-0.01018114417844568
-0.1919314656011434
-2.43210959274221
-0.1377599103482661
-0.9009711111534822
-1.117837057488469
-5.224692783873438
-0.7193681759201306
-0.2527107358858893
-0.7314805023961897
-0.1675878225287107
-0.1107565812738976
-0.1398539738775363
-0.149281783912296
-0.1406419818690101
-0.4854500257123932
-0.3969314874013876
-0.2693699922940574
-0.4126840076004907
-1.155574321115082
-1.550076151246485
-2.604455469141123
-0.3336483899152015
-1.367863423922896
-0.4058565083400459
-0.4171570978157101
-0.3577720808689389
-0.03881714631100651
-0.5895501484517175
-0.7799146901157304
-0.3519677344962857
-1.883436020016538
-1.296615026063529
-0.1851388850673406
-0.2813714796899857
-0.4774587282359842
-0.1224551626815761
-0.2904751095625793
-1.327288503947853
0.2152903488551116
-1.010641256737075
-0.8638323420195355
-0.779565261526776
-2.200641508608153
-0.777427930076326
1.679661192665026
-0.4882300107913835
-0.6711774750069218
-0.1581781944448765
-0.05057645065556526
-0.3382895695468313
-0.2389398937472132
-0.2405404038037876
-0.1632098033745737
-0.001880486150148109
-1.372349258191
-0.3040841923715613
-0.5164952604590902
0.1323309501313456
-0.6919980795917129
-1.066232216432341
-0.201826614994366
-0.4061377129100885
-1.343300567067001
0.95335315540646
-1.38920891582748
-0.15554239779572
-1.330159860064982
-0.5233380662453019
0.0001944561862350475
0.2403806876292445
-0.6624421654354755
-1.675991439888366
-0.1607048368514008
0.1411349102120721
-0.2767246735659244
-0.03597693107752284
-0.0277648013058258
-0.3705894331189596
-1.754513747629055
-0.2618901429360642
-2.246966354549753
-0.2634143468757922
-0.3421334040738848
-0.01102253108768587
-0.1762170519927757
-0.03513403877766971
-0.646715536768243
0.1336436185817131
0.1383717338362205
-0.2189308039109253
-1.681777372326066
-1.733283904312129
-0.08133363530253086
0.6456985422107799
-0.353310528618251
-0.2697329886631024
-0.6130638966885656
-0.8011283550346375
0.8177225743274984
0.8514183158757945
-0.06089846708800412
-0.320135394422333
-0.1699230956112825
1.31239475959183
-0.487830132060293
-0.2810215060785345
-0.06304722225018412
-0.4515992514135093
-1.297035009516075
-0.1872709515454828
-1.029083795762656
-0.1812323742581789
-2.762854748868729
-0.1251572317428244
-0.03394174365208032
-0.1774510658588858
-0.05611775072444906
-1.104998968308114
0.04474608004718595
-1.21982721467699
-0.4127709302868556
-0.7126518388956953
-1.426915865540191
-0.6224691939517039
-0.6467439513884065
-0.1094988200471694
-0.02820326584644236
-0.2719787925704173
-0.09544987281100945
-0.1002749723582706
-1.54225120638262
-0.09944529220024118
-0.08184871124109903
-0.09560924177586744
-0.9950127228659038
-0.8831655173949919
-0.06158262955020051
-0.101314689477434
-0.1740963055935474
-1.36139435617763
-0.04526036139050747
-0.4308603862250944
0.7861154565001569
-0.1286798405414549
-0.1257835743939403
-0.2485585679393125
-0.1128349492874332
-0.4064081113272203
-0.1191000310477779
-0.0865862563996178
-0.3303310147815336
-0.1308868390607536
0.10479367861013
-0.5878776813392511
-0.0862066595479823
-0.3705610699039562
-1.3123804332706
-0.709564058722717
-0.1454646789204637
-0.4766919192035632
0.6804061235897262
-0.09361278733350303
-1.174432333222732
0.3798594267051441
-1.775702317631823
-0.2783670892735095
-0.06679611223027956
-0.5461158883237343
-0.09241382194415991
-0.1333423030505965
-0.1498873673341608
-0.0864466239342373
-0.7022408585064147
0.4757472261395239
-0.2023246688910006
-0.1017145127500582
-0.543902891059468
0.3440548551653029
-0.1556223727962199
0.4512632313851645
-0.6922483286566342
-1.089303280688387
-0.08916629644828609
-0.17703487778028
0.2484817224395568
-0.1233131983412278
-0.3692407437432091
-1.004301599496227
-0.2880801521149999
-0.2751785525654388
-0.1464638041476294
0.02021939168511688
-0.9038517472510739
-3.21775046733373
-1.043563621591221
0.5399693917894444
-1.843379988402133
-0.8734900104641071
-1.99977092447382
-0.1559907526914624
-0.6574641788613192
-0.1511195806930968
-0.7836021360570992
-1.154426401134761
-0.07891527455867332
-1.095945356442483
-0.1403764640412256
-0.9913489511160833
-0.01650382607973892
-2.190279321006429
-0.7340203301150633
-0.9183895351966447
0.1939178337940958
-0.09786788700479183
-0.09199323986209371
-0.1750819108419002
-0.3665288228369297
-0.854444953459759
-0.6993136084356135
2.794610762884734
-0.4042070762857304
-0.5238586990135261
-0.4275604380838422
-0.5553571119744865
-0.333932533802841
-1.464857577673947
-0.9212445773406268
-1.120177119306745
-0.7617500480397267
-0.8920830511437268