/*--------------------------------*- C++ -*----------------------------------*\
| =========                 |                                                 |
| \\      /  F ield         | OpenFOAM: The Open Source CFD Toolbox           |
|  \\    /   O peration     | Version:  v1906                                 |
|   \\  /    A nd           | Web:      www.OpenFOAM.com                      |
|    \\/     M anipulation  |                                                 |
\*---------------------------------------------------------------------------*/
FoamFile
{
    version     2.0;
    format      ascii;
    class       surfaceScalarField;
    location    "0.2";
    object      phi;
}
// * * * * * * * * * * * * * * * * * * * * * * * * * * * * * * * * * * * * * //

dimensions      [0 3 -1 0 0 0 0];
oriented        oriented;


internalField   nonuniform List<scalar> 
37503
(
-7.323138581536751
-11.02482461121358
26.12848698362827
-7.780523790834249
-10.51792286369379
4.556059421979727
16.44006540074121
0.04353330270849425
-0.6466740615857623
0.8690780941742902
-0.2659373352982692
-0.1220305365862585
0.1514612937339883
-0.0007031219080891611
-0.02872763524259979
12.38856212030398
7.177536803526224
0.6054412878285758
-0.02054223254170876
-0.08953588830463953
-0.4953631669865234
0.08490274300390001
-1.606060781567201
1.571661870234865
-0.0505038316842493
-0.3948163645821555
14.38994962346495
-13.99513325887333
-7.678691674778308
-5.800036556502135
-7.837978114102944
21.31670634541541
1.780873831477923
-3.119416954449844
1.489081351113163
-0.1505382281523383
1.472488912731555
0.190445320167401
0.4206149844422279
-2.083549217335028
1.706004143981111
2.108366112412228
-2.700097395673308
-1.114272860694249
-0.04444880729670014
0.0186570522253191
-0.04269252198517658
0.06848427705273122
1.10500405495317
-3.568936899666061
-1.014858749449684
3.478791594207093
-0.8897806205239049
1.955310248165965
-2.762710985506424
1.697181357891696
4.259772388516559
10.58781153698795
4.496004329396298
-0.01357196213840064
-0.1624925809364256
0.1420830440056326
0.03398149906219116
2.083697978831429
-4.633333035908312
-1.984222965482568
4.533858022596754
-0.489221356510156
-1.272032824396865
-16.55294190202867
13.05259260443655
17.96569750843958
-6.668958999734512
14.16592123032779
-8.098022700630944
6.991404017718918
-8.272008128574164
9.378626811501004
19.97157484041626
-25.73182990443059
12.05195095676254
-0.04619773339379289
0.4767054192037996
0.01384468795121783
-0.4443523737641175
-0.4474518477875782
-2.173552694937837
3.72600859770486
1.387939262910476
-2.660024653079354
0.3823047696641015
-1.438539077137163
1.918016838526168
2.194232771649942
-2.67371053300218
-9.831722222154946
-9.395171849174149
0.284139441151024
-0.3326521835092622
-0.07780405642083578
0.1263167987701239
-2.288652884855036
0.425720129183469
13.08084986556406
-16.18477665775014
-23.75035844887776
26.85428524102919
-0.1520411409735896
0.1273305980479704
0.07724019937317486
-0.05252965645264409
3.506922827030897
1.921662980882982
-19.93364849770498
-1.541945291036518
-0.9985929004135582
2.093086343696278
0.2244791524594442
-0.01305999608826527
0.2062671471661379
-0.4176863035456927
1.322752680392111
-1.18378067445971
0.5105450920531088
-2.030858796814593
2.704094379251073
21.43654037273189
5.080633434017985
-4.453958103625049
-22.06321570308668
0.05051094331014851
-0.3090074918090095
0.1205400579078948
0.1379564905814768
0.2909287453480938
-0.6035977885759591
-2.144858603240277
2.457527646450411
-0.04081234070925673
-0.2339924039018265
0.3872500850426913
-0.1124453404379656
-0.06673826239012098
-0.05222524653631794
-0.006456371277024538
0.1254198802000164
-0.4970880430142223
0.445599810810726
0.297321541287025
-0.2458333090911426
-0.05287336166452877
-0.4205288606709147
0.6680646423319854
-0.1946624200118007
3.978451316123863
-2.557562092054054
2.443816889530031
-3.864706113599302
-0.1639773208099628
0.04022831228777471
0.02596111852132412
0.09778788999661905
-0.03865505654562733
-0.09050342880661509
0.03300770348399772
0.09615078186237827
-0.02040292198053032
0.1129496643123784
-0.1422692054099928
0.04972246307417416
1.949167760895304
-0.9686009192456184
-0.2500963681263636
-0.7304704735282199
-0.6621656519675856
0.1833970436982527
0.3212669319532955
0.1575016762971269
8.885176655523315
21.14884320744316
-27.49120087266921
-2.542818990294532
-1.250037936702038
-0.08075219406586771
-1.369307264893104
0.4802143200274288
-0.1276539443758907
0.08451395848833501
-0.4370743341439229
0.8254476028230033
-2.149913529130026
-0.9641869585289332
-0.2214636895550788
1.539442668791707
-2.105569273052911
0.7875902938001841
-0.1542321355049479
0.2142919721968457
-0.001322353481079337
-0.05873748321686594
-0.2327898032865976
0.1242832622804515
0.1638779751373106
-0.05537143413780812
-0.8989247845671046
-0.5232697460974177
3.153776900869842
-0.05075827090357769
0.3231242955573167
-0.3166163646794183
0.04425034001480778
-0.0034811789677469
-0.1271510400843736
-0.02577486644202793
0.1564070854873267
-0.008475905841067602
0.06544456986302331
-0.09003785124706458
0.03306918722180081
0.004060540373140765
-0.1323989518065819
0.1233929836335503
0.004945427793119808
-0.07304512592785664
0.0755448368688469
-0.03538473318478343
0.03288502224143705
-0.2407638408738716
-0.2230759595307134
0.4572511712623025
0.00658862913125987
-0.1673866411757507
0.1069393247037178
0.04912528102686367
0.01132203544081686
-0.1063973444007386
-0.004243200144072338
0.09629642411179046
0.01434412042895119
-1.924117385709054
-1.150281899971921
0.0442237070154031
3.030175578705333
-19.96242554571344
19.89466327309561
0.06776227262358017
-0.2087523179815927
0.05349703129009171
0.1132608344566983
0.04199445222849238
17.87985279224697
-14.7555252327143
-15.27621051252263
12.15188295302884
0.1069098563586172
0.03010551695372708
-0.09989323020838864
-0.03712214311216713
-0.1464198172906482
-0.4908160293714805
0.4335718487245493
0.2036639979294684
0.1241376295305101
-0.5797220293449803
0.4818319172524522
-0.02624751745754296
0.1569179810392956
-0.08511697021703726
-0.1003958197146197
0.02859480888592429
0.1951317484476654
-0.2222116022745033
-0.1531452443749397
0.1802250981927083
-0.05339889182782215
0.1627492164148897
0.2219995153640615
-0.3313498399580788
0.8330799599626036
0.6226879152906556
-2.185212794012907
0.7294449187507517
-0.01321886202839483
0.1271592585831239
-0.05475783352067173
-0.05918256304020986
0.09494353499961328
0.01677009128676443
-0.066724612271796
-0.04498901401964583
0.8090024026706509
0.8400924180468128
-0.08342185472548094
0.02664369607178615
0.05677815865153855
2.875265934082337
-1.734628090261522
1.015704235614465
-2.156342079442723
0.253317221308605
-0.1133677234780444
-0.119699410080502
-0.02025008775818076
0.1294144567438169
-0.02709754167704672
-0.07122481221633011
-0.03109210285566207
-0.07541380153283402
0.4433591975872348
0.3989936992389796
-0.7669390953108286
0.2523894145717352
-0.18567225237764
0.1583674789463253
-0.2250846411439613
0.1185995300427782
-0.1718935944177629
-0.2418186815015378
0.2951127458683042
0.07521458551716537
-0.1509430954325511
-0.03529068384146574
0.1110191937537417
-0.1196598867862115
-0.01864129178376555
0.01627064198195922
-0.077738063821482
-0.1235533915618447
0.09601133125006975
0.1052801241278224
0.1912842948792733
-0.1091042099312503
0.01947367617081751
-0.1016537611209922
1.054642325339295
-0.737182686841913
-0.3622516307905674
0.04479199227140886
0.0631537547990305
-0.2794605927420988
0.3011080217086972
-0.08480118377583012
0.2526234692165186
-0.04083341937974534
0.02183959635789589
-0.2336296462025651
-0.06140851383523403
-0.238608366658249
-0.1877828371043778
0.487799717595076
-0.03332329893656562
-0.1918521900011829
0.4089433978513489
-0.1837679089190567
-0.1382133343263556
-0.3423209477757472
0.1195744114891703
0.3609598706081518
0.02936531172311193
0.1430021514570066
-0.1957059853353246
0.02333852214825182
-0.1090454917323798
-0.0880010648892335
-0.2427744186677321
0.4398209752845747
-0.2051370200545574
-0.2794465967305783
0.3429965230923316
0.1415870936909388
4.787709442644968
-1.509646514075361
0.06779284775352813
-0.07098038497537661
0.003187537218834245
0.9807469487717183
-2.207394164994281
-1.433377436839911
0.05611159202009455
-0.03633294529298466
-0.01977864672919461
-0.2016335304208867
0.05432015031364763
0.02390557665621801
0.1234078034465757
0.003043479572759598
-0.06550733682749299
0.1590595838586841
-0.09659572661026439
-2.320204837372252
-0.8140105924657991
2.596112496537887
0.5381029333311107
-0.04274860012362593
-0.08680449681722399
0.145369118200817
-0.0158160212640623
-0.4328072711921065
-1.17122602893165
-0.8666929360329244
2.470726236161957
21.19567812299005
-0.07961736538432673
-0.3284521559749175
2.908647051353759
-3.763975569829128
0.0749568349943725
-0.1157726443095957
-0.03953848518575125
0.08035429449785186
-3.051784472357364
4.841587945562742
-0.139410676410894
-1.650392796828259
0.1650224014268093
-0.08164056431180076
-0.4231985193153853
-0.3257562935319164
0.5460619390987188
0.2028928737418098
0.1918750509255299
-0.1019248238977414
-0.02764960515815778
-0.0623006218739656
-0.06811290578360195
0.2580539303028838
-0.2364621842464976
0.04652115971445968
0.184347057762931
-0.2882646241068381
0.3014079915352024
-0.1974904251989698
0.04947414849353115
-0.01560241513229758
-0.07982987298933718
0.04595813962616816
20.19062440040357
-18.63671792495809
-0.4116242058765963
26.75195617544017
-26.7351483341284
-3.337972289598482
0.2328781082973796
3.855387357804693
-0.7502931764748395
-2.039862243187703
0.3394634105767164
0.9157613837539408
0.7846374488570336
-8.026717640485138
-5.121235308501428
7.017115989826271
6.130836959085539
-13.68513431972816
-20.93090700768182
34.61956989052207
0.761582634743136
1.580372846411999
1.384053116572997
19.36889179039551
-11.00232785384635
-8.366563936552488
1.195362353663007
-2.355002875022342
-0.05384753116233104
-1.728116505571521
1.124767526490736
2.31734867488026
-30.24245091175009
-0.9993500036930674
1.247868567298591
29.99393234818347
0.1119650204406958
0.006484455882191194
-0.1404351890019781
0.02198571267267628
-0.2237378012607525
0.04065337529962775
0.183084425957609
-0.1276095094100842
0.04947140644189794
0.1491514429546643
-0.07101333999119885
0.5342028777790236
1.423286696324407
0.5374014759384355
-2.49489105000223
-0.6065478509132288
0.2043598520667238
-1.761240017706053
3.097232712606381
2.056472454542214
0.8299032173615472
-3.692342285943113
0.8059666140244145
-1.881909713589398
1.906285907338313
-3.142082483711969
3.117706290013611
-0.3810178385225318
0.198135178417691
-2.017081594943663
1.707953517083358
-9.682948752636328
-9.050826437610244
-0.05583846579975664
-0.1504351722566744
0.1137098687958257
0.09256376925478006
0.115573852074623
-0.3406193335330956
-0.3504381591634689
0.5754836406074834
-0.514657335415482
0.3577833518061614
0.1166773103885298
0.04019667320210809
0.4603825285347822
0.210685777822389
-0.8227181579926881
0.1516498516259644
-0.3569314861091298
0.4830483209480831
2.211319787792737
-0.144013620756688
0.05840990027777311
0.008737311791872579
0.0768664086854992
0.01362987574277656
0.02196903954863342
-0.1327538928672181
0.09715497757286252
3.125477238833776
-1.082471535405785
-2.559859047801156
-1.16337883256618
0.6019211003228906
4.741183520680367
5.574757984354585
-10.91786260534244
0.2004642495767553
-0.99278556387733
0.6403998017760171
0.3523857620991201
0.07333634061702107
-0.2734131813746947
-0.2155137034723406
0.4155905442216645
-0.6392497177102077
0.2505373234126019
0.5430828103599277
-0.1543704160711511
1.797983845711226
-26.11006495518509
1.860410709383933
2.884832500902863
21.36482174491236
-13.87434097421951
7.883498578346801
6.592763496233491
0.2062223469238581
-0.07258434178837653
-0.1423854471767677
0.008747442036899141
4.807171161643148
6.572609407465209
-28.82350868796518
17.44372811890887
1.654072433372295
-0.770101195326271
0.283419996158138
2.669976638759971
-1.758034281232774
4.064299332884922
-1.722707727499855
-2.964472839558911
27.64900522397588
-13.62309986542365
-14.02590535852305
-0.09593215079775441
-0.003346922594882009
0.1137130644009332
-0.0144339910123301
2.363094119897815
-3.655733234399106
2.211510770580799
-2.147112458342876
2.844248739142288
2.408366315604676
2.275057045388934
-2.320329241074065
-18.69273342163996
8.374678007583736
-8.672583352008632
4.409450673606933
-1.5753642288011
4.486567815981384
12.50012324700045
-7.70610268607088
-4.2592536866849
-0.534766874271153
-0.01745959633539825
0.08895854281795125
0.0108438069125228
-0.08234275339992174
-1.282602456156204
-0.7374497301807268
-0.4534874804839175
2.473539666799984
0.3983994903324107
-0.2224085178473378
0.1224787745340089
-0.298469747026806
0.04680743011142149
-0.06301178343070672
-0.2165854499723774
-8.120904594411153
9.06968318880565
5.29011233967059
-6.238890934057412
2.707106990497808
-2.067374992139539
0.7122962044739501
-1.35202820285927
-0.05840154587876691
-9.016613749389856
-1.753040634869605
10.82805593005316
0.3036038960267394
-0.2034184361044223
-0.1001854599239996
0.1566658061185344
-0.2892059434921565
0.1325401373695436
-0.0664339308021446
0.3300309303112138
-0.05337330434106161
-0.2102236951733816
3.69774672699894
-21.7829814384745
-4.117277262087071
22.20251197358976
-0.1550557186353235
0.1587962797583451
0.1722686256869002
-0.1760091868191945
2.619363997735356
-1.263332322934444
-1.788838945986061
0.310741431993962
-0.154075625878842
-0.1466641163586386
-0.05373171219267267
0.2323076888855541
-0.03191186034398508
2.999600711112041
-3.543540296015893
-0.02891852063334493
0.5728581054996934
0.3640119375290136
-0.02616908981344448
-0.01915775400097922
-0.3186850937367943
-0.01812707703584516
0.01541833954644446
0.1097415165933815
-0.1070327791090313
-0.4362459892206117
-0.1107610077416386
0.2702301772626863
0.276776819686755
-2.31246907413082
-2.112109325567372
-1.436129359426842
5.860707759134494
-0.09413785916361976
-0.1679851312339844
0.1113412026480252
0.1507817877464394
0.08482976294713716
-0.2569243728259855
0.172094609875185
0.07404988946636329
-0.02544904668797912
-0.09020154781154401
0.04160070502800327
-8.082134477684106
-0.133425646775355
0.004927253159953894
-0.01747179166436098
0.1459701852733981
0.02708785888390065
0.04915312964550219
-0.07624098853452885
0.02992982206024265
0.06853438750508264
-0.1137866502836923
0.01532244071312618
5.860787048479139
-4.053858918052333
-5.279257468258544
3.472329337789711
1.977236208814026
6.063744660984699
-2.390998174058629
-5.649982695756108
10.45118838965017
-6.655678353637589
-20.95235119250404
17.15684115652229
-0.09799224566540571
0.07131485270415434
-0.1146159965479577
0.1412933895028656
-27.53485924103859
15.28541752652784
-4.303500187512982
0.7170781010638838
-0.3515909803171225
0.6868951684892314
-1.052382289228676
0.7230829042424417
0.1494208841876068
-0.7153970187994578
-0.1571067696387904
7.365471463786846
-0.8958483422095873
2.078194579428859
-8.547817701017863
0.1001102994154803
-0.1266352489013693
-0.335849788831115
0.3623747383101649
17.05342226969956
-13.0244379391379
15.33990745983258
-0.6420934670055884
0.1816987130906118
-0.06113710002045597
0.1012075757093604
-0.04007047569155361
0.06387932700885535
0.124910324113346
-0.1757795459884751
-0.01301010513732476
0.1213322993593632
0.02479768706907275
0.02105208866361212
-0.1671820751011475
-27.11755860981937
14.93464820648102
1.196754383106412
10.98615602028561
0.3202628938719241
0.4539445504402094
-0.3781434247309604
-0.3960640195874793
-12.68630097622686
16.40451624500282
0.09484941480399964
-0.3880682450598532
-0.1281581133278537
0.4213769435712962
-31.3030728759822
9.247093713843363
6.744571787089812
15.31140737506923
-0.163342807664738
0.04062106588619163
0.05513039202945101
0.06759134974399515
14.39336148663392
0.0429803690410989
-0.08860669098481387
-0.02240203635058539
0.06802835829095454
0.4439375285628244
0.06397279491381412
-0.5440927957228651
0.03618247224499522
1.417880692484931
0.1608023217282102
-1.014905614569313
-0.5637773996644155
0.008452987171865746
0.4153921275084374
-0.1283095402589004
0.06557816560281916
0.2109039833552784
-0.1481726087082918
-0.08373776844880029
-0.1304475631973279
0.01731925616208323
0.1968660754811141
-0.2252995510386411
0.0243535994226446
-0.004259325712817548
0.205205277320293
0.1983622666796445
-0.03688941316211149
-0.1614728535230326
0.02847765353276896
0.066410759443379
-0.09488841298014318
9.860497415419172
-14.31542319713856
4.454925781707574
-0.05869430821281289
0.0789773945926756
0.1790636015370334
0.2130057002347711
-0.1393319381014822
-0.0007213417834930184
-0.07295242035835486
-0.1024225600375662
-0.307165570222171
0.8300990845283881
-0.4205109542741903
-0.1535783708425899
-0.4330701046519319
0.2191045254586728
0.3675439500204651
0.2033670163216479
-0.3870097561132711
-0.3647382289885913
0.5483809687765776
13.54329257348629
-26.13966285854543
-14.52118832471712
0.9229475352041957
0.4209475090992225
1.754217824653626
-3.09811286896536
26.79548990482306
-23.78799625761676
6.907393558093272
-9.914887205281468
-13.18443163915654
-16.10920164477881
10.14166639058417
19.15196689338999
0.2029622252871189
-0.05087154875790674
-0.152090676535263
-0.03227656513644001
0.004704896904569901
-0.1688911906357913
0.1964628588577525
-1.325094791929545
-4.784065340477277
-1.019252431029562
7.128412563431791
0.3966238084122533
0.09524729699240742
-0.5695321027260118
0.07766099731980043
-0.0534158245564313
0.1690255821593636
-0.02320209257218911
-0.0924076650364236
0.04607729412191754
-0.01114625717878979
-0.08512926671800988
-0.05761572103545185
0.1127999473901415
0.1439343610267625
-0.1991185873918588
-0.06966713493666525
0.1444283127000625
-0.07476117776683346
-0.04765501804909654
0.05280512700719667
-0.1293278804284775
-0.0589893418865299
0.1990802098223811
-0.0107629875154469
-0.09992550580728883
-0.05436512235615291
0.1542906281573106
-0.446084375974026
-0.0487377959186704
0.4177869186958916
0.07703525318899099
0.1950481631818306
0.1794903971091588
-0.324027616987777
-0.162256646317309
0.0985741904888342
0.09930215979036093
-0.03561970396845184
-26.36926322757786
25.32335202582689
-3.682543971527291
4.728455173322703
-0.5616254806901269
0.1153732145767576
0.3794906610842648
0.06676160501454012
-0.4944245514606935
0.1992994566088939
0.6232706735373604
-0.3281455786938631
-0.1662751249833803
-0.01514526363275311
0.106343045726889
0.07507734288377281
-0.06412872056074669
0.278491331171572
-0.2452824500798925
0.03091983946066248
0.07089242275583262
-0.2188046537532484
0.05953839339961432
0.08837383759049909
11.31551902594191
3.090671864796147
-1.107152491894568
-13.299038398829
0.1393733925292263
0.0322855184927349
-0.1198947081145883
-0.05176420291391477
-0.09441948674335794
0.2430227802655832
-0.05054576635272876
-0.0980575271761439
0.1479216271056373
-0.2321122157921595
-0.2050153548102477
-0.05023538601843511
0.04416703820844717
-0.05021587062928336
0.05628421843613722
-0.06275850264140381
0.4337595995713007
-0.3089491499248936
-0.06205194701039071
-0.03420413458107201
-0.2807109484577509
0.2708436220257667
0.0440714610050923
0.1623764457412728
-0.05844985645626862
-2.360664207727707
2.25673761841406
0.1639145183594956
-0.02240535230408036
0.03959051975357682
-0.181099685814538
-1.396498142792497
2.057772445800206
-0.2188697599492221
-0.4424045430602602
-26.66250194767435
1.500513186934586
26.88905739185038
-1.727068631090468
0.07642195422463141
-0.3175842738325299
0.3282869985535152
-0.08712467896138922
0.1298367408000941
0.02721422903750262
0.1004038154452131
-0.2574547852890992
-0.1042903577769557
-0.0278807832216249
0.1035746821042114
0.02859645889054801
-0.5257629051120041
-0.5957349024572026
0.5862740843997415
0.5352237231666985
0.05792475742768606
-0.2612855093453165
0.204186273934544
-0.0008255220267930801
-0.2094154016930143
0.03914299140313501
0.2368726176936961
-0.06660020740885565
0.04045192283255963
-0.1385599924052017
-0.02536849991307704
0.1234765694833461
-0.3765873273013393
0.3703539719624246
-0.6642277038915952
0.6704610592164275
0.2547264242452684
-0.004040619077592223
-0.6488511821610764
0.3981653769624989
-0.07370330610615193
0.1558272284144733
-0.05337918265982208
-0.02874473965334392
0.1421609851346841
0.2708858714831365
0.01471366341258444
-0.4277605200361608
39.26775782764808
-25.14693265774683
-18.14955509641326
4.028729926524096
0.3450537433528515
0.1045245822096012
-0.1641907139923765
-0.2853876115789348
0.007745677971129339
0.0146597979293712
0.2202851204738609
-0.2426905963830642
-0.6501987617684865
0.1286406253420006
-0.1023460641828241
0.6239042005987472
0.09125144715104488
0.03830495744267345
0.05389251396831501
-0.1834489185673145
-0.05406252290279524
-0.0597461932725161
0.02775388489483788
0.08605483127705747
0.04975250941128246
-0.4073930166476449
1.712126781540929
-0.8418872576187511
1.272067590603606
-2.142307114550053
15.50812414214342
-10.95184838762267
-0.04181990100200304
-0.1286016524951521
0.1287375090459041
0.04168404444524252
0.000237773188957966
-0.1346226468888099
0.02115586566407392
0.1132290080320029
-0.1630424077906842
0.1529862589362046
0.05758507531545969
-0.04752892646622026
-0.2589591312310711
0.1094451954608701
0.3500896529209723
-0.2005757171589674
-0.1193773623445871
0.04626779092487556
0.03687578822807466
0.03623378318625913
0.09599726641232735
0.04030085791264321
-0.008544935413729041
-0.1277531889193985
-0.07622625676442855
0.05682710195101445
0.09781898052446546
-0.07841982571658532
0.5824026373243553
0.6780890700689345
-15.3444287502134
14.08393704288143
0.1609680481412021
-0.1723316381896658
0.008838729810260333
0.002524860232880354
-0.1836714958885735
0.05850743683218379
0.04162931075840044
0.0835347482896394
-0.1893595973756911
0.3411655819269277
0.133185237153062
-0.2849912217169541
-0.07124521724911681
0.06569198263444533
0.005553234611103921
27.65124430157299
-28.50469197613079
-8.468193177855211
9.321640852396213
21.54433781551899
-2.699139299929227
-21.99168206288099
3.146483547289127
1.95880814057977
-2.178590795139898
0.3093781567534519
-0.08959550221615865
1.802253793448992
13.09484742440644
-8.380100514898242
-6.517000702961652
0.2229007780840183
-0.06281481630919164
-0.160085961781602
-0.007239486747361103
0.01326750797399489
0.09238306246786325
-0.09841108369625789
0.2797616562348388
-0.1186507944546098
0.4338243104065245
-0.5949351721946664
1.819132241639772
-0.1428153386042888
0.2891365741711145
1.204297985369605
-0.4505086104891749
-2.029014854448384
1.275225479559178
-7.316368752570427
-0.2482914111464036
-2.47828096699915
10.04294113077468
7.671711341099691
0.896492184276228
-8.237690876847296
-0.3305126485502251
-0.3846627980437542
0.1574910423935502
0.1737728638172919
-28.75805081976068
22.25648126524945
4.486133691900435
-0.1136779365755414
-0.1604826700977053
0.2408373077337535
-0.01067132971687282
-0.03926547471826432
0.049936804433209
0.09332882908274505
-0.04693025648976856
-0.1484612948990625
0.1020627223023514
2.726307890063681
-1.749887006185321
-20.15490927266741
19.17848838882912
0.7436749438062572
0.1114829596986211
-0.980489389064215
0.1253314855478922
0.05479106810505172
-0.06002313141593865
0.1679812797219574
0.3601207126000944
-0.04621182269515994
-0.4940023676279593
0.1800934777201933
0.1598269724076952
0.05346211890305576
-0.09781096025215089
-0.1154781310624397
-0.08857172428951358
-0.4152415041815883
0.1988263136331109
0.3049869148335202
0.268853357976037
0.02274090423428301
-0.2619037224134487
-0.02969053980528787
0.0349053729106988
-0.1951281150748335
0.0290050001801868
0.1312177419722946
-0.03233362393225929
0.4626907205610251
0.2617726098712216
-0.6921297065093411
0.1968171013414687
-0.2512328179413056
-0.2715469634222135
0.3259626800099547
-0.06142221116578862
-0.2884911214614214
0.3027821759119383
0.04713115669897591
-0.04267794000957192
-0.1604850315146917
0.2031629715188603
-16.86269956016016
15.53696332867289
-2.625220527825177
3.950956759262506
0.0837483043828484
-0.1264262443944876
0.1370727064153403
0.0878518613643762
-0.08288642847514185
-0.1420381393094628
-6.845878834730479
20.01396424536249
8.268454962130157
0.7135368220027465
0.02098365728343898
-0.454758823054504
-0.7989921517135684
-0.3154821741874466
0.6560064352388305
0.4584678906431643
-0.03340827063652336
0.1220505610206922
-0.08322787129533663
-0.005414419094826962
-1.049217386684156
-0.4061799895278034
1.349294290229369
0.106103085949587
0.00103123824218374
-0.01784873370579399
0.06629164395481416
0.1278443451405122
0.05343105549950741
-0.2128074210805416
0.03153202043631504
0.06361360214193502
0.1479790473792725
39.17734449194814
12.2212138398084
-37.25934081308033
-14.1392175186412
0.04490714791073562
-0.0874089711229091
-0.005006386190117099
0.2824835627412737
-0.4826141966092377
-0.3459718718613964
0.03876199645616632
0.355170432336666
-0.04796055694270705
-0.2716000420929326
-0.268984518903916
-0.1694312412337664
0.7100158022144492
-0.1345633156111116
0.1807521004050412
-0.08862448719553935
0.04243570239659796
-0.796646848046524
0.6805155611382703
-0.02102350939993796
0.1371547963021807
0.09317283192686271
-0.001152901914115472
-0.01870449111897095
-0.07331543890030996
-0.6484522997659705
-0.09787205422621724
-0.1569562477382585
0.9032806017325631
0.1388683832262068
-0.008747187060252931
-0.03690955864084252
-0.09321163753134797
-0.3619322509782376
-0.1077653884562772
-0.04495969599166073
0.2993816239875885
-0.1964882737155261
-0.1028933502770088
-0.03906777414785114
0.02291080055200278
-0.1187490834702106
0.1349060570606036
0.0334000084161055
-0.1181154042246088
0.106456137500259
-0.02174074169731337
0.5363641560717306
-0.732745772307305
-0.1219893334099838
0.3183709496343358
-0.1121509806143212
0.1463184083498139
-0.103068554261627
0.06890112651662142
0.1373186071472786
0.07055928257960499
-0.001775230959770434
-0.2061026587730937
0.5853333965649132
-0.3669224070999469
0.03258965387549364
-0.1532384246667348
0.1092428936061747
0.01140587717953584
0.04398967563253427
0.001271126304423075
0.3340612799313979
-0.3793220818785832
-0.1296393951755191
0.01609557641066092
0.00925346098573307
-13.68827643359024
-2.107402170120903
-3.517930463384588
19.31360906710623
0.4637695658554869
0.07932934626478716
-0.003270441126334623
-0.5398284709958219
-0.06364226829200829
-0.1891482477534805
0.1830649143844456
0.06972560165119983
-13.29492978077252
5.290643818010039
12.95987848952783
3.297547713716038
-29.55235598401305
-0.1317785457360538
-0.03769032874681823
0.02280475811841879
-0.04830412964371794
-0.09582167256697476
0.1859126253008086
-0.04178682309793683
-0.3522151073065855
2.247282113780548
-4.264256206656625
2.369189200199846
-5.651444088631655
15.8290570844689
-8.375359202381022
6.798651455719336
-9.206914955257973
15.13622349323552
-12.72795999368726
3.223935954497709
0.04396720715984372
-0.6691228663162917
0.7640823086715851
-0.1389266495253012
0.08457351914544414
11.01645921410317
-4.654423787348095
-6.446608945895023
-0.1572590927730638
0.01232068733184408
-0.1081186388373925
0.2530570442680259
-0.624792399547593
4.038026452697245
-5.135941780665063
-7.721439311032641
3.323699638009511
-1.182765666792555
5.580505339813663
-6.653416602872623
3.899514147222988
-6.81434745762098
9.568249913239946
8.971314700694226e-05
-0.1732725654357383
0.03878499959054791
0.1343978526928777
-0.02931179268936547
-0.3426806953529852
0.3654073925263399
0.00658509550863325
16.88658196040458
16.45326375961031
-12.46080350868369
-20.8790422113133
6.432065942395459
10.4545160180219
25.87736253136758
-6.615773877942649
-2.8083248937998
-0.05054384216274908
0.1915576922999802
-0.06870883784013671
-0.07230501230414668
0.1516482332358163
-0.1025266162136092
-0.09966545919133422
29.75369756787924
-40.44261938379518
2.958823509382253
7.730098306544445
-0.09548272768104935
0.08541359060292214
0.01107426465809784
-0.001005127589465559
-0.04213428979872815
0.1207090266047332
-0.07857473681035879
0.1376233740462201
-0.1728765233268756
0.3270331594486852
-0.2917800101800808
25.78635416780724
25.90595589483264
-0.1032192967860146
-0.01643425616275999
0.140317831518805
-0.02066427857513755
-14.18504915415041
14.18837227724288
0.1245129626514556
0.02025304265078764
0.02719580717840486
-0.1719618124881151
-0.05141731987162411
0.02363854512559948
0.02777877474192699
0.1665934016977482
-0.01950720841691518
-0.1766811653940646
0.02959497210910643
-4.70548016089486
4.731548501215615
4.750832022979773
-4.776900363287536
-0.03368065203855607
-0.08444897397963939
0.03606345828985865
0.08206616772361705
-0.05319757164009037
-0.0506881285058458
-0.06538522811170143
0.03170457607160395
0.0317123941967371
0.07230541302619935
0.00141790311977802
-0.105435710346713
0.07864140023378738
0.1179409626575612
-0.02442019642954353
-0.04096503168402709
0.06906478674726473
-0.1158069616817137
-0.1015228456513811
0.148265020581298
0.07369920830278141
-0.02523221529188659
-0.04846699301419881
0.02457599598138746
-0.09405196309978624
-0.1097278176755645
0.1792037847854985
-0.302730076832022
0.1269803578842822
0.3178232973393939
-0.1420735784129065
-0.7363727349516945
0.08751491986018074
0.4823268832633024
0.1665309318213622
-0.1031928407372322
-0.2019650165205998
0.4219316826336303
-0.1167738253903607
0.3132333925526323
-0.03645064820196259
-0.5015868305388891
0.2248040861870874
0.09681872187268603
0.02232626119947831
-0.02197569097844701
-0.1372208868565849
0.3262262812429693
0.09795741291949368
-0.2869628073187902
0.08699831736908525
0.06510486131654789
-0.1521031786884444
0.1088168936212483
-0.1311782301608918
0.08862986152750514
-0.06626852499175449
0.7868915735123526
0.01464319722349481
-0.4635580183750562
-1.266129688739265
-1.289089052276617
0.9241635176804595
1.631055223332339
-0.1109853058657181
0.03438341824692576
0.1091915414909978
0.06734918924585567
-0.05054290766224431
-0.1375631793129762
0.1007953239425416
-0.01623374753878866
0.05300160289993182
-1.16149260562876
0.7428021080380298
0.1938460920108798
0.2248444055629669
-0.3533550566762758
0.3608866369633837