/*--------------------------------*- C++ -*----------------------------------*\
| =========                 |                                                 |
| \\      /  F ield         | OpenFOAM: The Open Source CFD Toolbox           |
|  \\    /   O peration     | Version:  v1906                                 |
|   \\  /    A nd           | Web:      www.OpenFOAM.com                      |
|    \\/     M anipulation  |                                                 |
\*---------------------------------------------------------------------------*/
FoamFile
{
    version     2.0;
    format      ascii;
    class       volVectorField;
    location    "2.1";
    object      vorticity;
}
// * * * * * * * * * * * * * * * * * * * * * * * * * * * * * * * * * * * * * //

dimensions      [0 0 -1 0 0 0 0];


internalField   nonuniform List<vector> 
19631
(
(-0.04783638460448248 -0.09357844068190584 0.008753923254294423)
(0.854748087318603 -0.7035113005559209 -8.598498481822443)
(0.0172005626929224 0.05558571381010847 0.02216096742791539)
(2.837215919391212 -3.65183205989392 -24.91591155773696)
(-0.155825630979785 0.006092092914690941 -0.3696219638520228)
(-0.3229144300317259 -1.285929652046284 -0.4264139058938221)
(0.02201904714011748 -0.05256816698842546 0.1518700506086326)
(1.889819904931239 6.615762921582604 -6.351695072188205)
(-2.480968837310703 -0.2190377183676602 -5.553655158286594)
(-0.07567471494162832 -0.01504648624864904 0.01348897693544505)
(-0.5251023303810243 0.1569343094814744 0.09315915236796943)
(0.04322701959350066 -0.2818781088887179 0.06152674030387553)
(1.180700944650934 1.210647043247941 -21.09181763954211)
(-0.1683565536886129 -0.2827102780799582 -0.2960875976469158)
(0.01093934812999331 0.009538587526866253 -0.006798177907706052)
(0.2043569867233669 0.3998044282629525 -1.514566016227325)
(0.3680575653356642 -0.5256515601525357 0.1305048476736922)
(-5.499500519829381 5.384638768825821 3.763441403059209)
(-1.094187593233914 8.916751930507026 0.4327433550967598)
(-0.7834519034550377 5.106373453661041 -5.951328614629407)
(-0.1074888721887182 0.01235554255850631 -0.01984516518581107)
(-0.0931660021573516 -0.4354909043120542 0.1322350673399702)
(-1.30833010426485 0.9511923372942288 1.346040485588274)
(-0.02035955035333908 0.01521312973404501 -0.01449057797006143)
(-0.4391119499559901 -0.2151884203538653 0.2278054820455016)
(-0.09157824602544688 0.002076030635335957 -5.520667185923478)
(-0.5339354228624483 -1.107100513996641 -0.1856913188233519)
(1.951951419878145 0.6885090950781033 -5.436903674598913)
(-0.5589496001518338 -0.07371576158917362 0.02904828490453276)
(0.007726660286163953 -0.003742190668038538 -0.01483641413679838)
(-0.2177931765683561 0.1620990984129641 0.1157612027461036)
(-0.3909028753362688 -0.1444405139106622 0.07961479863757215)
(-0.8600762502090336 -6.75997501664981 0.3209797993976622)
(0.05160555927562333 0.008462086299983913 0.005574447447469554)
(1.288499422084629 -0.5599104420300691 -3.161519029225246)
(-3.299271044356754 -7.539776779973837 -3.755300096190493)
(0.01415131836165079 -0.08521743444268548 -0.03266523939764064)
(-0.5356831308253281 1.161382496175397 2.194147904818648)
(-0.6332371071909577 0.6358032975574488 -0.6226103355820751)
(0.1651924106256292 -0.4355788000017257 -0.3486191559852072)
(-2.627602850788625 -4.413522350065785 -4.662214766433387)
(0.0578153218972409 0.1050163506954601 0.05152242116988777)
(0.06426748544351879 0.01897466100240145 -0.008765320643487838)
(0.06042316202006756 -0.04066675418692651 0.03961442175103676)
(-1.182194313234571 -1.690545929327552 -1.190482286096205)
(-3.85036997089085 2.927798097928519 -4.624068060835911)
(-0.05853297458241422 -0.02294420190136577 -0.01247890706141227)
(-0.4630838965356288 -0.4881604430053438 -0.02598752798845744)
(0.01220164407335814 -0.04161709145002976 0.02581000663709476)
(-0.4793064384350783 -0.20182204015375 -0.2094915856754276)
(-0.2674502790054859 0.447158200264524 -6.980480856994472)
(3.057881497439599 0.5368109227046742 -2.039869682161612)
(-0.2831193112243443 -0.03231761865974118 -0.06941381095936451)
(1.351100885541416 1.102721736113793 -2.177041267034408)
(-0.5031401661061838 0.118696551391489 -0.6027553165604828)
(0.9691131931255271 -1.160117186800978 -2.6301998553291)
(0.320174440031548 -0.6093200411294468 -0.04530159014968103)
(-0.9112198511611201 -0.477241172658558 -0.5644038306687666)
(3.773956614830227 -2.629804890197114 -5.790319010369984)
(0.01111195301580656 0.01219483265921672 0.009258941634961746)
(0.01016708024192726 -0.00307386676159329 -0.03147604030727796)
(0.8144922674985265 -7.107075809734276 -4.756295231205291)
(-0.1574933297595405 -7.60593329142725 0.5352648742923143)
(-0.1689485003287433 0.03749163739262316 -0.08942867973520757)
(-0.5065448565558375 -0.5845279246426272 0.134249001763047)
(3.806002992324915 -12.55885767957973 6.397152679250887)
(-0.2534161166417191 0.02237509424664742 -0.2283275940899095)
(-1.253541188128873 -0.2515561237594476 0.07337358293143846)
(-0.6460752889917545 0.3070295945014642 0.3423833485526123)
(-0.03240984895346245 -0.03247871726267442 0.03259244251562124)
(-0.02841669350581116 0.0150192929730564 -0.009250890529654266)
(8.58235210104209 -9.800325920884138 -20.11038056676857)
(-0.01063897891232729 0.06933824359719266 0.005684338170547609)
(-0.7052214769775185 -0.1848476602643135 0.09092009751282085)
(0.2670586428856883 -0.009880226859256651 0.3255983199374052)
(0.8045629958457881 0.01379905379435953 -0.03011604528449829)
(-0.01995023113609911 0.03315150380952754 0.07853026884282789)
(0.5571928561956951 0.9105477564441405 -0.8573649817837236)
(0.2593297790302098 -0.2104104726640206 0.2571144067538969)
(0.714102233268741 -9.943850504837163 -50.21402071383098)
(0.003321599205917651 0.009743705285058003 -0.04974812129972363)
(0.1204835796045382 -0.09424115573028427 0.1026374160715914)
(-0.3494079395301762 0.3053326025668536 -0.0558141215567718)
(0.7402144872786121 -0.952559962602656 -0.9069541545390087)
(1.179411227878504 10.04512581908132 1.168140658212366)
(1.048046105985608 -43.84920078805816 1.90348798755385)
(0.01873738120828251 -0.07769479332792215 -0.1641522411801038)
(0.206314513870073 -0.2292511954590863 -0.06073838040178481)
(1.729507492261692 11.8229774605552 18.33211920281504)
(-0.02860005584702053 -0.008280175459114573 -0.03681027116369665)
(0.3814859778871356 -3.434756358448474 -0.730882435299809)
(-0.1385392847506792 -0.02459735350349128 -0.04807900618943935)
(0.02268219006719528 -0.01932745649457134 0.03656851137537145)
(-0.2876601953064692 0.1308571611169939 0.3144835373602132)
(0.9116434446132181 1.016232524157255 -0.5338492645178184)
(-0.782696338151494 22.91908644718858 -0.2581451249076608)
(-0.05791934143337005 -0.03366475434040056 0.2274728586335393)
(0.5554021316164405 -0.8263115299444856 -22.01563372239414)
(-0.8945123430096167 -0.1182737674871055 -0.5980998088520821)
(-0.6290281659661685 -0.4464982585993073 -0.3449074818284936)
(-0.2200792825818755 -0.2382051230265254 -0.01114847844816579)
(2.119781591001618 12.78759470371634 1.86182710048312)
(-11.47734222924072 12.53337591933345 -4.959883960519667)
(0.02133970738960368 -0.03584378496439024 5.981527097430588e-05)
(1.480780769802623 -9.51728029186239 -0.1719903415350157)
(0.4221264998168485 1.1082325535443 -5.15250656782392)
(2.293546886443456 4.692198753138026 -1.72075345993956)
(-0.2205419634355656 -0.1138226653462636 0.02211738301455646)
(0.2240972896851616 -0.1021179259264799 -0.345344295004135)
(-0.2033449528244465 -9.585816087169215 -2.862753175959275)
(-0.1249109729981148 -0.77037837412771 -0.1745512966854477)
(-0.8774408928708917 -5.158564782499304 -0.6493730409690271)
(3.571172725717972 -2.142009065218972 -5.620448188467544)
(0.6789196182624224 1.938247488063264 1.600134955591217)
(0.1515435658288636 -0.05590020757110711 -0.04299810837047632)
(-0.06683531120301978 2.974404801919693 -1.120865887776338)
(3.798690434840568 6.262641035404735 1.111287401803476)
(-0.7897637288290514 0.4865987220062207 -0.1329883602831781)
(-0.0649140639548984 2.361251812017678 -0.6924949299361861)
(-0.5544703373611257 -0.4181086360342182 0.09320088887429034)
(-0.32008400631742 -0.04086268752988453 -0.1989125514328325)
(-0.3119513374042764 0.1704509071636115 -0.1007432992115793)
(-0.3582223581071866 0.4815845352970544 -0.001140409872156953)
(-3.29924256167875 -3.442389991664115 -4.827596952725564)
(-0.895891613680124 -0.8977007399070531 0.01352344130508504)
(-0.2193927183173025 -0.5158979315158373 0.1929740540124811)
(-1.957821208848847 0.3516000491946041 0.02098154372153138)
(-0.2956495521871781 0.2034750938683957 -0.2855823487761812)
(-0.01549937214577672 0.02516469597413092 -0.02281129689211586)
(-0.07271757563736891 -0.5585762019729525 -1.874596630444399)
(0.01261385932532839 -0.002822909215573197 -0.02010159090093326)
(0.09677609919005706 0.005065452283515997 -0.02994561438488548)
(-0.3328483956471606 -0.3103736979065935 -0.09545636992589054)
(-3.223442101115054 4.191196322736441 -6.391202810850988)
(-0.1066423246546497 -0.1119173005510806 -0.03274653083334582)
(-10.77788874516002 7.803159551516194 5.11291555399199)
(0.1560685360041727 5.345495983645041 -4.294560447211108)
(-1.17942609532992 -1.154094020171791 0.5480149588333763)
(-3.48642689989061 1.03852264876474 -31.91429859362477)
(0.09494438060972166 0.008236749198051202 0.3406504515278197)
(1.570348775519237 5.932816478062683 -2.34249853140991)
(3.778405987265006 6.640421523713446 -8.776425507404028)
(-0.722957223602738 0.6410087565201639 -2.669947450634961)
(-0.01424650366404033 0.02376428044779377 0.01984073232873982)
(-0.1083041702466625 0.05758371474103093 -0.00383142279562057)
(1.779165809973758 4.124022161037264 -7.763224844337472)
(-0.08552087945371767 0.04287705923344162 -0.01817479114685579)
(-0.008670943361897859 -0.01863475394464501 0.02217823911166537)
(0.0331431169864853 0.02209646465248151 0.001651409539020947)
(0.3840317600792246 6.187538227189523 -3.743366595238015)
(-0.6668769172456444 -0.3729967458028542 -0.2974815799872242)
(-0.1860240196692816 -0.009359037657199414 0.1066843830972209)
(-0.04937025412566753 -0.02930796752793783 0.0458202251449097)
(-0.00318487612505285 0.0009604089478215672 -0.04957875764729089)
(-0.3177911253809311 -0.0202325468214639 -0.02162428239596421)
(0.05332746767870863 0.141992240951958 -0.215120954738012)
(0.03605693115766035 -0.0110603863029948 0.0113896583930738)
(0.07273665430794346 0.8710868381083383 0.4828683417062723)
(-2.653681100751955 35.48936830460197 6.564778168419231)
(-0.0773370308375127 0.1162703522079169 -8.366913050987572)
(-0.03183508802451468 -0.1574813743070265 -0.08052534399510827)
(-0.0587526015611135 -0.001324289282020942 0.05122158601824357)
(-0.3626632114624915 -0.07067286996758215 0.06627060217317469)
(-0.3662380097546086 0.1200684070429612 -0.07111136368732365)
(-0.06070120105216542 -0.009400699045379587 -5.448959428403002)
(-0.03222172770188843 -0.009498205195071368 -4.951050968487174)
(-0.2375112278485994 -0.08410596257725736 -0.01679278337065714)
(0.01252175229318576 0.1310681138046396 -0.03577146713069097)
(-0.288162057798968 -10.56766676504202 2.84049613828029)
(-0.0736494330981699 0.02322439643493247 0.001143857194646231)
(0.1708256681074512 0.07470699720966595 -0.6578910200600621)
(-0.6973011070848419 0.4987349266241489 -0.2648011574293199)
(-0.2687504930947856 -0.2719725912641322 -0.06635797584681331)
(-0.2374266296171762 0.1781924733404075 -0.0942713105846297)
(0.07672518320257954 -0.006338641638618761 0.06721857411522317)
(0.03840723451759143 -0.5451742748858152 -0.4498659820922238)
(-0.05247805812938008 -0.05251229864888088 -0.008469561693661065)
(-0.0679385131666024 -0.3283286315480144 0.1414922377739729)
(0.2057897274665996 -0.03188826545404996 -0.1021933066405378)
(0.4577327855087636 0.3437336581787139 -1.797427527885769)
(0.8326305511620231 0.3129433876367187 -0.2326494340087148)
(-0.04547159829231219 -0.009754190757087434 0.01709495048518786)
(0.04426845106978648 0.02878878548778647 -0.02688886939001421)
(0.04603701923734607 0.01244680987533626 -5.300113473486197)
(-0.02213078749518155 -0.005038766104481129 -0.0004316932938097442)
(-0.06889996369555493 -0.03856636011494133 -0.07324970112986469)
(-0.01015471284577762 -0.182421256249436 -0.323118278804091)
(-0.56529985550414 0.07168264471449505 0.1371177362042003)
(-0.4779798129133257 0.1294860167819925 -0.4847357571563666)
(-0.3165498750827789 0.04990163326790053 0.01975699863704897)
(0.06952167747096559 -0.1732926064399145 -0.4343342834555085)
(0.203475909993945 -0.5135731062574971 0.07664519327825765)
(-0.1979735085663319 0.4384755122686114 -0.3696748201659023)
(-0.01746874326887595 -0.0001656374535218092 -0.01534249576846924)
(0.1503791918422401 -0.2588701186868143 -0.2500494064841436)
(0.9101123243563944 1.818185821174102 0.8425818218163883)
(-0.04468329218915043 -0.3960263506773448 0.1742128885507229)
(0.07139908804476212 -0.04296850829424087 0.05219037158773773)
(-0.2433029450912032 -0.1369293339928049 0.01203111504377582)
(-0.007776967476431744 -0.02149155965361282 0.04062790898625449)
(0.05638480160386265 0.2919147049288847 -0.05806463509963954)
(-0.1430746398900551 0.2018766790753423 -0.07192227335108475)
(-0.2215378056635433 -0.04701738064162919 0.1061272692608972)
(0.07043934475708802 0.0844619469138933 -0.2577702143619244)
(-0.008242698613793398 -0.038764465519269 -0.04824718867791674)
(-0.6180639403750388 0.4633923748624256 -0.3005913990159732)
(-0.9784048024021677 0.2983689379284873 -0.2136119376852468)
(-0.3222424041895129 0.3262441963113629 -0.1453536627525243)
(-0.0100236640365429 0.08393798197096515 -4.641850610208306)
(1.226105464226031 -1.446071915459331 0.5779366322377328)
(0.01789484675564935 -0.1323545453152108 0.05656523366196498)
(-0.2762585719067656 -1.102564746089327 0.3901612451183248)
(2.26935962535658 -7.495733488204369 -14.14998246182504)
(0.07837323520515342 0.03285414623164616 0.02539390621942382)
(0.303799462143276 -0.08127974729109939 0.1244842376824293)
(-0.9076849384814238 -1.430920451115637 -2.308107016981139)
(0.03886473186105208 0.006933662896780735 -0.03002026006951268)
(-0.03726647926188621 0.04118694771799863 -0.0167089614853659)
(0.1107727216696133 0.0004337125980750541 -0.04846801037160038)
(0.8011740374967098 5.710273786381283 -1.347631848006516)
(0.8678881448568213 0.06992792513550578 -0.1624382571478335)
(-0.07792756665595617 -0.03071246508499093 -0.1550271773477662)
(-0.1443405742940271 -0.02284944997628672 0.1603183869104787)
(-0.004290568689095737 0.004258602641286979 -0.005007810019529039)
(-0.02773600350648502 -0.003994373801354607 -0.01712519627305529)
(0.0109547977905018 0.01596690082286448 -0.03361862458963144)
(-0.1482193253885991 -0.1050826541358129 0.1108864914160215)
(-0.4607292479008914 0.2118180662007659 -0.1439633032620657)
(4.091282065402968 8.686741931215012 9.536426088943266)
(1.720261530858125 -5.638296380748303 5.142005722547258)
(-0.006088835408129914 0.04681938212429246 0.04367055888106205)
(-0.9661939862533716 -0.4501086073685747 2.944358454760907)
(-0.1602421227958358 0.3361978917897338 0.6232914660701364)
(0.1812870934323927 7.701730903008768 -4.010489405712605)
(0.2415395452707976 -0.9933674797456025 -5.711579611976644)
(-1.186472401520923 -1.715955190883288 -1.61840812747495)
(3.75834448595383 -3.201963093877172 -5.331568974159642)
(-1.535488434076949 1.464072402307454 -3.571666245695771)
(-1.231505674776318 -0.04438133201480959 -0.1618251105974045)
(-3.097467070431208 -8.330054484981178 0.6305400773035381)
(0.07264459829087297 0.01981561187327386 0.06652207288196919)
(-0.2118919502740507 0.02163785872201824 -0.288313446752147)
(-0.1314445496697595 -0.1000938874426511 -0.01373068711267933)
(0.5911046620279388 -0.02620419629917756 0.4026611777586925)
(0.05753872290759551 -0.003941215057696647 0.02919472039384221)
(-0.3452675629889534 -0.6354339345704787 -5.068683994969413)
(0.05897874768858359 -0.1289566962323958 -4.763757483914421)
(0.01203132109868723 0.001098302633215498 -0.009162622511494595)
(1.050311390297421 0.2231425054996447 -1.756254969426465)
(0.03468237833346407 -0.04648435659917091 -0.02122671161480563)
(0.1912286021086348 -4.401324312123793 1.540549563266718)
(1.517256853566507 7.45189518200739 1.578440301484124)
(-0.05864038500345542 0.01953479071403495 -0.09914375274041523)
(0.5812134547195387 -0.07413337968412498 -0.01488342946235239)
(-0.0633754653701659 -0.01577930851999137 -7.731091470672261)
(0.524582476430254 3.195703991062351 0.723643667912911)
(-0.1750072620252299 -1.193023306203884 -1.080824419174561)
(-0.3379549855098933 -36.06252664272419 -1.877648467439747)
(-1.687547774191796 -29.70282267469484 -1.986236758002156)
(-0.2648918069300892 -0.9951416772091835 0.1617308914710894)
(0.003989665293886287 0.02010811336762064 -0.0237664103294074)
(0.8716646718737587 1.115282880465461 -1.288525685295477)
(-1.413494465663633 -0.7839177812066647 1.051912853504207)
(0.2420211675512139 0.5251960606760413 0.1930869954460414)
(-0.2842010312454686 -0.1559286361421826 -0.214327901452269)
(0.01042767369661542 -0.02540412017464394 -0.0002735540706937187)
(0.2213173820062491 -0.1504828380196968 0.01039168136025178)
(0.893472607955605 0.3233624124073268 -0.163049778606403)
(-1.187790467031679 -24.80242810158258 3.289793076715104)
(7.424660184318363 5.733848414064592 -30.17283605057475)
(4.103758364033268 -6.556845977598726 -2.320864797708876)
(-0.05693220295958119 -0.2023863429619382 0.4331565793732304)
(-0.08557734262838645 -4.160367928520759 -5.004921285433587)
(0.01507528103574002 0.002447592072561879 0.001597027935320438)
(6.067511912379472 7.253066394027509 6.868439645456155)
(-3.173099211181564 -37.34578048398724 -0.3445444533413001)
(-0.02013800842406128 -0.03094336829431388 -0.03486002864450273)
(0.2125958635691418 0.1089320066303229 -7.106521819543194)
(4.045047242545301 9.13536793303148 -0.8035763720008158)
(-0.03339746535267335 -0.009465933217134022 -0.01786570894479858)
(-0.2012116927688867 -5.801798986205883 0.05849086553370186)
(0.05985392065626827 -0.464075566992235 2.725434203608036)
(-0.2251218653308629 -0.07952521869916315 0.1723468682201652)
(-1.032737406644052 4.564478245983058 -43.1224183019931)
(-1.857098230174312 -7.650173151443576 -4.270851492063863)
(-1.362287724688044 -11.35937743979095 -1.617481653440336)
(0.8320219887283391 -8.717565893969617 -34.95511444135483)
(7.395544371545012 36.66730026295365 -0.529079382035631)
(0.001022424607135836 0.09281605975589975 0.04729136752585598)
(2.540176652041628 8.069749461371893 2.650038417323604)
(0.4453299701671537 -1.029650550004288 -2.027118178943619)
(-0.1060236887646115 0.04821926476885801 -0.02824784937433045)
(-0.1839850917392761 -0.1687070683423891 0.04207688554062791)
(-1.819323199937851 -12.27304934701891 -45.20610741129114)
(-0.09764617333517925 0.04175819876706657 0.3262160747652023)
(0.0008050755278022044 -0.0008861386258449426 -0.0002625519137081447)
(-0.8591730383207929 1.127994165211039 0.04356261058176114)
(-3.542913631941295 -0.09408024980706742 -27.9581722685936)
(0.1240130463932847 0.1172894658870544 -0.1350306543119529)
(0.1169388932489461 0.1978722929938357 -1.637837359810711)
(0.8340121229695183 0.3007232627559903 -0.8015333931340268)
(-1.550214508854332 -5.514928233299609 -2.257075643481106)
(-0.8891618019567091 -0.1348127175777306 0.07952114069815847)
(0.006033218181810421 -0.2475047347121203 -5.220525632358491)
(-14.07850281714123 -10.29768057192263 -2.888165156869607)
(0.02976846104983588 -0.01273402621179724 0.04611381517773214)
(-0.8824643949081106 -1.822355212996638 0.9732688041801882)
(2.192286484560941 -1.846049995877819 -1.810196043286115)
(0.1199020683168271 -0.1074547493035063 -0.1285788333604397)
(-2.352849253966388 -0.2875956015284421 -0.5935213861352304)
(-0.8817537219147861 0.6289147067174531 0.7718681630091672)
(0.004060645100156973 -0.007440645124892198 0.000771244045619427)
(-0.02505985277750775 -0.01064801713269795 -0.008948377045507418)
(0.05121151985881242 0.09022423116300522 0.01139091488786336)
(-1.060536677177359 -0.8289255975388914 -0.7580546348201408)
(5.201426157320523 -9.232338873092621 -13.21398040849268)
(-1.956112618953598 -9.456625736938484 -1.573283894292585)
(1.051696805889667 -0.5538579666284353 0.1830603003137988)
(-0.358360185328819 -0.7123552118222839 -2.38311778256542)
(0.003049016438567243 0.0008679627952811794 -0.001585042437564967)
(0.7318361851610827 0.2665646372179776 -0.8061255654352649)
(0.8451617018422909 2.225771329221292 1.396896086178482)
(-5.434581922247255 -1.460418257730514 4.456679278141159)
(0.1813205823582782 -0.1522010470636649 -0.009539641354723058)
(0.06306403661584181 0.01659680579123494 -0.03297845823040485)
(-0.1107937895932293 0.02804458305743054 -0.1047624391196133)
(0.7979109191454268 -0.3175635586510588 -18.09930442347895)
(-0.03371259591199675 0.005443656137602438 0.03286130219566429)
(-0.0673800161074767 -0.2696660532686772 0.3806484416140598)
(-0.006259548721369256 -0.002429933481824695 -0.007557402300024183)
(0.4313111806295672 4.774354696644671 -4.092709171532348)
(1.131965334729127 -6.425847739047006 -2.582119798168193)
(-1.241423584430062 8.271492825369791 3.954859452840984)
(0.05109006433471976 0.0980058495239193 0.09134017956112488)
(-0.009588001723563101 -0.006486841366304525 0.1030132019148286)
(-3.688428857610891 -4.023666970675004 -2.221512166165721)
(0.201232565105134 -0.04085748545723972 0.2566350333236357)
(0.2906305151845298 0.9655787214742897 -0.02558055977582827)
(-3.30360468728532 1.984281452085501 -4.493250338303826)
(0.01597366623151836 0.0002240734152876801 -0.1522832062414761)
(4.058253214946985 -0.3454291865790828 -47.95684250915587)
(0.6260777758102998 0.1842377996746079 -0.4558915018726225)
(0.009004689226112007 -0.0013771653933936 0.001998471100937333)
(0.8377568147817336 -3.521898323389899 -2.388993711242754)
(1.07784020187313 -5.375102630590094 -1.462413729650891)
(-0.008796481054869 0.07631095201979363 0.05879605115872606)
(-0.2651028280042559 4.43637273274026 2.247404508685599)
(-0.1770802712865313 0.06792997851222352 -0.0986252041716026)
(0.009378966083408366 -0.00106229993683225 0.01261049267121348)
(-0.03507479601176312 -0.03942361369403576 -0.06300142902256718)
(0.2115534564264505 -0.03292226011043844 -0.07229552235805088)
(-0.007694333917601317 0.002058385271128831 -0.01600181922015885)
(0.01594280043269997 -6.91223698589509 -10.09371058872035)
(-1.150071689235415 -1.687508330102211 0.1180933764346866)
(-0.2211088980106423 -0.1245230418668745 -0.1769249729370303)
(-0.5033104342243712 4.68396219544463 4.368182717633702)
(-0.1506168889892801 -0.1225457604740954 -0.08230407130860951)
(0.1728887557131747 0.8077488938778328 1.181505067889041)
(0.2495074297988019 -1.249222623167525 -18.36232588506227)
(0.677585111934274 3.635608001266105 1.002611283305996)
(3.238339874904742 -4.511273933181263 -8.621040876839301)
(2.442612657342385 -2.596910579214251 -1.44422303320213)
(-0.8414779611268299 9.305029154984378 2.1672615256496)
(0.3952835781119216 0.7158921015414288 -2.873256625105053)
(-0.1214976248767625 -0.3273368964355071 0.02000084432524188)
(-0.2699199260560167 -3.143073350427488 -3.96860173868125)
(-0.04417363303882522 0.02424975710370902 0.04625746905331531)
(-0.05132115243016394 -0.005593998857136365 0.1110387896372779)
(2.147246392918883 -6.240943019270846 0.595321063932703)
(0.1936716092458581 -0.03999994336911554 0.06587439261106721)
(0.04557555681179337 0.03664504595741751 0.09430467111200108)
(-0.003278373439130677 -0.05809045109140165 -0.02148588181696215)
(-0.3476751882902214 1.021277607633855 -1.241119522037872)
(-0.3574722043132263 0.1004074584415242 -0.2607675167943285)
(2.799651215818182 -5.263499995125057 -4.087883426469443)
(0.8953173560697347 0.233411024161391 0.1925920733140415)
(-0.318424867525457 -0.06508842860916172 -0.02655167584976081)
(-0.01537942426423488 0.003978838056129838 -0.02390669289406251)
(-1.159892301109527 -1.210820930938372 -15.79321390928489)
(0.1851117281394933 -0.3421183385566929 1.049045740955411)
(1.653848024477851 31.08599908212016 7.772570746827659)
(0.06519137579722885 -0.0610968037723133 0.02018688795258322)
(2.766192006488381 -4.798146483838536 -0.8223602519952791)
(0.692608918160371 0.4217706393202586 -0.6729147298816414)
(0.6066921346014817 -0.5519393475396888 0.3954720467075242)
(3.68488583343013 1.128823634997866 -2.011838592800649)
(1.23452608255406 3.845535113598378 8.947510234606348)
(-0.9626187604808671 3.970753193938668 -24.25151289806268)
(5.608335153839047 -4.253156785330773 -0.9628778887702831)
(-0.01407105065243167 0.03321270081932826 -0.01330946711043526)
(-0.07389766514812637 -0.02143755043110454 0.02340797672821266)
(-0.2466847243946489 0.1242768103570141 0.05004973935713627)
(-0.06096083882721535 0.03171879503260621 -0.01374524771897289)
(0.03902319455397359 0.3023601325860938 0.01690166121337394)
(-0.1376483596848096 -0.06042232600520246 -5.492314454346363)
(0.005647239096577749 -0.0002811560976666762 0.03368066537439236)
(-0.04349429037396323 0.0725150052824827 -0.05495301456952195)
(0.04517148306067187 -0.3163007062051502 -24.75437569470784)
(-0.02713848972533157 -0.03208251312525669 0.03275709715353757)
(-0.2484783162201403 0.5624363715916321 -1.233908496909374)
(1.016484743358711 0.1102201164035735 0.1594218342339735)
(-0.509290331379078 -0.05077523323308571 -0.1305250997400302)
(-4.290179267152364 -1.380015843548465 -2.175159959368004)
(0.06600987420061538 -0.01260184566278928 0.1453435299327894)
(-0.7820163354791421 -0.1912775962299941 -3.736005724972406)
(0.03111420616133025 -0.08922572036409815 -0.1318638172622479)
(-0.1164052016546139 -0.216770083713913 -0.1303929407386894)
(-0.1154162254430029 -0.1139021856466945 0.05446655843115338)
(-0.6407232811187461 0.03088123610282194 -0.02528633826715576)
(-0.08917224978125822 -0.04423397604700147 0.03513847412758813)
(0.1366899929874466 0.01964931518444746 -0.05851300431810388)
(0.569566948260932 0.006316161980558757 0.09035758083408402)
(0.00937963732632285 0.002470472531672499 -0.06008361222392746)
(0.3309608315221546 -0.002451686773514945 -0.06061205807345305)
(0.01300948809868872 0.005713891987282887 -0.007357370022820107)
(-0.1117474918327011 0.01982365875557268 -0.0355357721757061)
(-5.901523430298914 59.78468937511133 -9.127271068873114)
(1.716945815260764 1.024492664139143 0.5409342408663529)
(-0.009116199391525939 -0.0323590984317703 -0.04750747177375669)
(-0.04058496652421619 0.07517811183560544 -0.01997289785303797)
(15.92932543723152 57.74460841610991 16.61576495854606)
(0.06070812472941829 -0.1282846133120388 -0.0243402151259833)
(0.08058915014589473 0.06391369347224023 -0.03910465291609808)
(0.5073207511115664 1.087844573086529 1.046271634529929)
(-0.03219255627879058 0.01400802721799845 -4.984657456726064)
(1.13092566267269 -0.9091644300376178 -0.9691966031633986)
(7.624502672433348 4.385928983742115 5.196615879197565)
(0.1852378568403723 0.2224630152739669 0.08003725760547981)
(0.4858352566844413 -6.17030095877412 -1.021620062528794)
(0.005034855819033492 -0.03897991674560659 -4.770080578710361)
(0.002148381625237472 -0.0457200916116198 -0.04225518026330633)
(-3.680559568418715 52.28901177031592 3.150507065044633)
(0.7239280746692933 44.01337103806606 -4.290370831755716)
(-0.06096475819578853 -0.07426482502725451 -4.986215664823328)
(0.1460251831576612 5.639664519427789 5.244890469466757)
(0.07806940791823169 -0.02742049305835574 0.04260394409804594)
(0.2710436083252521 -0.03539035222057474 0.1015053839699263)
(-0.1273223600312073 -0.07212522570298238 0.06838176149047766)
(0.001209957197821157 0.003842077180196224 0.0007768659126401963)
(0.8458070020181556 -26.1414924553468 -0.8796448835677551)
(0.2787048525342872 -0.275133907626673 0.05292270457030378)
(-2.467455386048258 -39.20188937430065 -2.510836646173356)
(-0.004936126989827677 -0.02827289584869568 -0.08990686843885372)
(0.2860664850753402 -3.005973900761248 1.713779658298686)
(-0.3877596920795617 -2.057355697321935 -0.5907089847134044)
(-0.5860360207808355 -0.16731450575042 0.8339642988000002)
(1.220547853114472 25.56343953897926 2.647693924736959)
(0.50916931321512 -5.581905160943378 0.4766320862458769)
(3.042558707659171 5.63612241144753 1.776766709015078)
(0.6814732821256355 0.680034456413531 -2.649068913560378)
(-0.2544900493686069 -0.5887552126716917 0.1979084588652197)
(-0.06922732816568294 1.163617921575513 -1.208319556909846)
(0.1477355099270541 -0.162531573727284 -0.142032874936362)
(-0.1338295238438598 -1.395299514577991 -23.50344080196631)
(0.6743492233201283 1.555139947754786 0.1496242184846673)
(-0.0007086809977638418 0.009163695807872092 -0.01844754366135018)
(0.1377923127991711 0.07094459535639563 -0.0557783284017121)
(0.08113458723285401 0.2873340603154295 0.1084843734330721)
(3.712826766856807 0.1834171047905707 -2.569771413987824)
(-0.03159550245420156 0.04739370196140552 -0.1404773195131933)
(-0.01988196234274948 -0.1055042533746196 0.005214770735585753)
(1.749749286717954 13.86603742524331 -7.459590401567103)
(-1.298172292504309 7.64950709270165 0.07728060277420457)
(0.008095655040746675 0.003193708502584267 0.01025428112392513)
(0.0556197947179651 1.018123211697786 0.369266539888933)
(-3.795727901318212 -1.831968448050715 -2.004687686882546)
(-1.195188034749842 -1.752146424517331 0.05200311328184257)
(-1.782472730187655 3.246750278016457 -1.927493645759999)
(-1.74969473882832 -6.869854260977163 -2.976266674466715)
(4.686444482313997 -0.1096485368534274 -1.292232453333322)
(0.2916447721909691 -0.1452862836284715 -0.411259957127789)
(-3.711484675793526 -0.07000182414965024 0.2700415091889139)
(0.0331919593606933 0.0162196610645509 0.003488089125983326)
(0.4379644197125082 -5.232194285050668 -31.83287217449669)
(2.157494952067331 33.43438953587405 -5.359279526496628)
(-2.987363502530473 -3.023895438369527 -23.37845735492778)
(-0.01191810539449873 -0.0143885329475871 0.003549405617124687)
(0.535365147507755 0.4398937649701863 -2.460518605127457)
(0.007964861497650948 -0.003711961412621626 -0.0007598772867213732)