/*--------------------------------*- C++ -*----------------------------------*\
| =========                 |                                                 |
| \\      /  F ield         | OpenFOAM: The Open Source CFD Toolbox           |
|  \\    /   O peration     | Version:  v1906                                 |
|   \\  /    A nd           | Web:      www.OpenFOAM.com                      |
|    \\/     M anipulation  |                                                 |
\*---------------------------------------------------------------------------*/
FoamFile
{
    version     2.0;
    format      ascii;
    class       volVectorField;
    location    "0.2";
    object      U;
}
// * * * * * * * * * * * * * * * * * * * * * * * * * * * * * * * * * * * * * //

dimensions      [0 1 -1 0 0 0 0];


internalField   nonuniform List<vector> 
19631
(
(5.00125182939235 -5.257982497657145e-05 -0.0006999618746085007)
(5.000768031880972 -0.001594918452210294 -0.0003228407767237299)
(5.054045791370259 0.02015308263812452 0.07433884906740913)
(4.923144146106775 -0.04107884061373033 0.2393155415593372)
(5.002326518133116 -0.000518771121878836 0.0004926019034612239)
(5.06237292237198 -0.05392639020829565 0.003767136040479822)
(5.013692302260736 -0.007032267469646926 -0.006655041548919406)
(4.989377833448013 0.00654952792284797 0.00125406777363807)
(5.000743601069656 -0.0001779530259914377 0.0008429730871625585)
(5.007114651141625 -0.008149279922388303 0.0200321041279992)
(4.982917622179346 -0.004914627014941701 -0.005781591043774268)
(5.012245521515068 -0.003355640085544553 -0.004183581375034074)
(4.131232000934344 -0.2952026411333761 -0.8466889439523109)
(5.013145999949788 -0.004368623177930973 -0.006798075701869433)
(5.008376489510925 -0.005338881567644091 -0.005467211731591655)
(5.00073589533789 -0.001190279314779006 0.001625989396954402)
(5.08106683020346 -0.08750015523938275 -0.1066656146821625)
(5.007051052027689 -0.005907077584579964 -0.003543093909956008)
(5.000551542382442 -0.0001650735937244668 -0.0003311606914394642)
(5.000213034066376 -0.001478141741696908 0.001703268153774896)
(5.000366591550296 -0.0004260169105610475 0.000862666167771788)
(5.003190700820284 -0.003281020300242723 0.001355918317796502)
(4.999180760232657 -0.001819127822722059 -0.000195663939124772)
(5.124393976243275 -0.002010109816282803 0.011312995923143)
(5.011839578365112 -0.004245061027825209 -0.006664841116985975)
(5.011180357735831 -0.001785541859277511 -0.00100677524304691)
(5.017481966366626 -0.0005502141352261263 0.005174627792571197)
(4.928917630460622 0.0006958898059692375 -0.0002833005688902291)
(4.886105515573439 0.1275421855968418 -0.2549844893690446)
(5.013999826391 -0.003920688884757831 -0.008242833053448124)
(4.999501636789851 -0.0009677820182160692 0.001249342029684393)
(5.062369338446474 -0.05293440910523804 0.09203478249085725)
(5.000150603938478 -0.002068617637938333 -0.0009970243791708184)
(5.012860646434242 -0.005417691666135368 -0.008532618475112313)
(5.065352865498713 -0.09396840008805785 0.02894491836759422)
(5.012165000072394 -0.004039505305780526 -0.005116021511435732)
(5.016293427393718 -0.006091138875384369 -0.006199936818040151)
(5.00073067494611 -0.002254499844957846 0.0003673796710378432)
(5.037823556279437 -0.04132205603130067 0.06907177370899706)
(5.021615188420841 -0.007224368376830874 -0.03505301667895222)
(5.102588480623291 -0.06396029250325866 -0.1130028266535231)
(5.03217326762812 -0.06453840469900851 -0.1958005672310542)
(5.040177642602763 -0.03460049875839533 0.00586707315597272)
(5.019109917956555 0.04488261813514383 -0.07370274509492396)
(5.002481907759046 -0.008094877365712272 0.02656293842576579)
(5.020166685513032 0.1382614775612113 -0.03641494213755605)
(5.106029603681601 -0.1386179199084189 0.1393697692807124)
(5.042638240040866 0.07741144936053179 -0.5140205877319057)
(5.029888430364508 -0.02505864057752715 0.02238329783974813)
(5.017132899426404 0.006099478559482865 0.05074041176143548)
(4.999351619860183 0.0008278796954580574 -0.001398301288982152)
(5.01265299490309 -0.005039897200208125 -0.0004902724831991788)
(4.963573539160035 0.02818754820561262 -0.04100800179809904)
(5.015492466697056 -0.005682742567442541 -0.007735228443108763)
(4.985034200454746 -0.007579275535689293 0.004626941097816895)
(5.013328516354585 0.06053998140048947 -0.1274589435316205)
(5.069192881365931 -0.1040312838326608 0.02652486491389356)
(5.013464018889157 -0.003827843185662229 0.00490283979715104)
(5.036621307871898 -0.03136878565149561 -0.01953219210727105)
(4.999440468674183 0.1319695806683729 0.146901349344799)
(5.085137800812646 -0.01062727315487707 0.005064401993472575)
(5.083949242368202 -0.2412967347271037 0.1054525319170299)
(5.105744659466852 -0.03722616139559164 0.03531247893413698)
(5.0544427480205 -0.06576942839267849 0.08211958520226478)
(4.91191300033478 -0.0272161563549502 -0.09551676778288781)
(4.973986674596791 -0.08503319035523511 -0.458863198147673)
(5.017625033577835 -0.01072871989460188 -0.01410044590754271)
(4.9936974237628 0.005018291791184896 0.001139436106323653)
(4.985305571394695 0.02973744781510719 -0.1955623606170914)
(4.997806217150778 0.0001212843392033016 0.008366504124461969)
(5.03163934510416 -0.1081615258789163 0.04390582031774062)
(5.055105418372216 -0.02494792429830794 -0.05275637946399746)
(5.038215333309606 -0.0453396323600139 0.01054847281193468)
(5.006468183509583 -0.03197523665009108 -0.3782211111877776)
(5.054299333529542 -0.06312509544407667 -0.09316585283951423)
(5.009347222074005 0.06117451321891616 -0.1439482581731791)
(4.99148244696624 -0.006249791462277575 -0.01569493479118276)
(5.096633447319189 -0.03675134378943123 0.2863338907322508)
(4.383957336166621 0.08597662601587866 0.3999305910081036)
(5.014058158417364 -0.003988580265199242 -0.003578843796137196)
(4.338558734276348 -0.7421241511850603 0.9207023272936319)
(5.009608019643832 0.0004529976756539173 0.04953360891980496)
(4.806191276933458 -0.06221533710820778 -0.241482662491588)
(4.75264645364536 0.1735327308111891 -0.4708770428620544)
(5.022300133730716 -0.02214798243855504 -0.06404084009063317)
(5.050485163385538 -0.05922754119376501 -0.007600942970630117)
(5.066108396203258 -0.02620373804931676 0.01157795497250251)
(4.994672960247856 0.1297225447672558 7.967927338186666e-05)
(4.886610977197914 0.04486640019492563 0.3639367563181337)
(5.058034677116726 -0.06719552628496867 0.09243929599080425)
(5.053289522682618 -0.01189782001116433 -0.1159131385386091)
(4.935990116396473 -0.0136094688136525 -0.01165181472651858)
(5.092123546582892 -0.02910419995250095 -0.1023368964983023)
(5.067952439718499 -0.04925458280053062 0.0599085655747349)
(5.025539700512554 -0.02852652342056181 -0.07259136269945664)
(5.063039092583731 -0.05918252432163754 -0.03809928175406194)
(4.72704685378006 -0.2152047271795489 0.3760609550808691)
(5.018595897299837 0.01282155696380839 -0.1063961826454311)
(5.064307845112589 -0.03134220759909497 0.1042240655861067)
(5.047730683615096 -0.05468862398741798 0.002769745534010216)
(5.010118092730051 -0.005198129393340037 -0.008502817225441909)
(4.369679161709947 -0.30876745592302 -0.07580272216969594)
(5.01060500766249 -0.002043085627088643 -0.0007890918101444312)
(3.362079049212712 -0.09965268521547563 -0.01728616691410084)
(5.113412069731703 -0.07728036715497609 0.1908955560933172)
(5.085664499666633 -0.06868683590081601 -0.05441826824471371)
(5.017776573774096 -0.009753395407072625 -0.006390847954108317)
(4.34354372322818 -0.1148368437431408 -0.1523667625105676)
(5.011481011631894 -0.01108814033092168 0.007742093329762697)
(4.987880192005946 -0.004084852374537141 0.001289038006218183)
(5.020913207939256 -0.008083904052094347 -0.01015567822207251)
(4.983820477228249 -0.1019815072464153 0.005249129953803071)
(5.00746692901406 -0.005653879988135932 0.007415967490951604)
(4.30863612772018 -0.05728494929214385 0.07949508754792933)
(4.840063071260339 0.02092395912991521 -0.0131001799723669)
(5.169576221121531 -0.1388772637559861 -0.3152744169158075)
(5.042818075027106 -0.06527247603833786 -0.039533287966367)
(5.032995641662641 -0.04462828539091845 -0.05826478172889701)
(4.683032926500665 -0.3635224053774093 1.205371078445767)
(5.000477435903676 -0.0002608493467056816 0.0003880332403774093)
(5.001164421438539 -0.002498205872636327 0.00323968496105292)
(5.008698530568135 -0.004509024984607881 -0.007218815302770422)
(5.011808519897749 -0.007221977757225644 -0.005739105620261277)
(4.986926803502024 -0.003995753015001918 -0.009831972917614597)
(5.00008670193594 -0.005016842054680145 -0.01386615529075161)
(5.01092090405414 -0.004882229090971971 -0.009289430446882026)
(4.97667149129991 -0.005275988079141457 0.003791086706848359)
(5.013656331306517 -0.006061034341285026 -0.006996802689168123)
(5.008004361331554 -0.004581268634285806 -0.005806067962288735)
(5.014216235985254 -0.004155760476319726 -0.001258889627820468)
(5.000603377650526 -0.0024739274959757 0.002413838521748234)
(5.066477309298802 -0.05336739316002504 -0.08374999744808069)
(4.758607883788899 0.06858306292275089 -0.2462011392922119)
(4.943314019818586 0.3359377308725445 0.4585882836449274)
(5.013621035831891 -0.01143207714807385 -0.01516328463302388)
(5.018032767612572 -0.00775407953724716 -0.004318424361452587)
(5.014821761594141 -0.004245051222512233 -0.009692774062655679)
(4.972930410127399 -0.001827654006775578 0.007031692308940652)
(5.015239163749193 -0.008263471329689286 -0.01263516356339227)
(5.018744474174214 -0.009658709121868274 -0.008449820678763811)
(4.987232695511223 -0.00819277126038696 0.003722440879128187)
(4.941544649890833 -0.0006189640314061682 -0.002542288479708293)
(4.969185856089638 -0.09749571790252641 -0.2198685065706687)
(5.056310986211464 -0.03785689929892867 -0.03789760948758927)
(5.040096718727081 -0.06357490406195845 0.06571430699380391)
(5.04408237030634 -0.01595827580095928 -0.02785121922159832)
(5.026200834150848 -0.003973542022542739 -0.03520150262820863)
(5.011362372441631 -0.004908784573495284 -0.007921444683670249)
(5.010113888569241 -0.1894364201816715 0.05484438050265649)
(5.04397938743741 -0.007256664869868553 0.2045778912783887)
(5.003801813756378 -0.001093793372181156 -0.002745089406697831)
(5.014408498759487 -0.00552680705502564 0.000971971229741185)
(5.011357182375186 -0.004547552540021064 -0.002848733403291089)
(5.015592804168969 -0.008029169069275139 -0.001128926969004856)
(5.007603604303167 -0.002807054749105363 -0.003488567292134532)
(5.012462963518044 -0.008377242126682609 -0.01029784330560468)
(4.604171221557958 0.0662732895133694 0.0276296863552519)
(5.041069821016354 -0.06432966660852958 -0.04053782878176919)
(5.049321015547718 -0.07493791476313626 -0.01649617502662106)
(5.014422298534191 -0.006914035465171857 -0.005426961421460329)
(5.000543021830975 -0.0002477973891912342 -0.0009114279829263213)
(5.010713786341523 -0.0006548340234594146 -0.00411968759555387)
(5.066902762523057 -0.3987579522068828 -0.2544144621608037)
(5.000458808542486 -0.002098462458320081 -0.001583704220248506)
(5.013597525836856 -0.003254022299108333 -0.0005990326498405736)
(5.012131653348423 -0.006287140927677394 -0.006331931582310552)
(5.008627809033467 -0.005660388670265993 -0.006003395664449195)
(5.00879036287596 -0.002303359204578421 -0.002132351375474005)
(4.989858098328933 -0.002192236158013079 0.001322509893213721)
(5.014398505504214 -0.1803405969991064 0.09501933858077914)
(5.016848103665187 -0.001842579391891992 -0.007938746171946853)
(5.01415466743699 -0.006721846261115593 -0.01645761455316202)
(5.018995052648568 -0.003485385004020523 -0.01266561875667455)
(4.986386826109618 -0.004275542807573315 -0.004027763082894532)
(5.013855645211504 -0.001217648437507088 -0.01187237558404157)
(4.921997979486592 0.003582037174297123 -0.01824714819662759)
(5.005238022818799 -0.0003237772129289763 0.005647089072404594)
(4.133795076960596 -0.06219060548883413 -0.1040250453498014)
(5.0121802757605 -0.007881073664851442 0.007385022593546142)
(4.846809177272264 0.03021722057611802 -0.1772634726658911)
(5.068361806647296 -0.1027203738840865 0.0399129066381282)
(4.997278518294055 -0.001600310165388251 -0.005412832605789226)
(4.987059634785022 -0.005208427941384059 0.00209153036393475)
(5.005810572371144 0.0005347652630687514 0.005376757520524231)
(4.76068234513749 -0.1167984786138802 -0.2025740119250944)
(4.354514515523863 -0.1454709033117152 0.05999675461048308)
(4.947987886488066 0.1018894238723888 -0.07506013103110576)
(5.000051774221067 0.0003501418512667708 0.0002884463102293024)
(4.9892958275273 0.01628184122478927 0.2528249246383846)
(5.01266869377346 -0.009545475294528734 0.01229933067608024)
(4.553136491325564 -0.1577739931291976 -0.1210858134739188)
(5.056712966224962 -0.05308903796421399 -0.04609525852008248)
(4.99364167475115 -0.002386802419954866 -0.01645441240923398)
(5.007243957717246 0.01963775314940116 -0.02452651103631575)
(4.182344682601813 -0.02776898727125515 0.01298847321088201)
(5.144561785747968 -0.1249692112251156 -0.02296774879836509)
(5.000201008347179 -0.005487386530241818 0.0136278287170989)
(5.06506422133979 -0.02589040103656929 0.1134376618910606)
(4.052517473908868 0.008402978767773997 0.1337192318460403)
(5.241601027992786 -0.4728225965012439 0.3738612419102539)
(4.985328144637077 -0.002844155486483313 0.0153393069916092)
(4.987404752834202 0.09559948044008568 0.2139267332228418)
(2.780635675529914 -0.04189630653161779 0.1781536195636245)
(4.525365065540928 -0.03513960563395364 -0.08098806820109901)
(5.009151091531963 -0.003779531540101573 0.004547390044727074)
(5.004957898859973 -0.003535800115001362 -0.004758947240985337)
(4.998176916180631 0.001784806365097523 0.00196549107288221)
(4.424177268367266 -0.0758223333128651 0.09861528458047467)
(5.000741705301158 -0.002143927004325066 -0.0001570251713944444)
(4.99235784159225 0.005717172492173172 0.07680110446499042)
(5.035718055957447 -0.02905829251812074 0.01154632019752587)
(5.015027031256649 -0.008154480969179671 0.008931667983281726)
(5.054176800282888 -0.08829777512524888 -0.006361822506425589)
(4.998787698687281 0.002334108780022763 0.001465159543727374)
(5.037619383114 -0.02966354494752075 -0.03775036940039606)
(4.39725867271634 -0.02709396769888153 -0.1489941647311949)
(5.045767415565798 -0.01728486517427286 -0.3491716806704888)
(5.047886061787464 -0.1822582681946041 0.02025374159527442)
(5.000040784186192 -0.001402965002446905 -5.176026212242538e-05)
(4.948688518120531 0.03348888087211133 0.1687203310791047)
(4.999835526323815 -0.0007850110441289296 -0.001608622489422092)
(5.101372080082021 -0.09883631750421426 0.006741033990345841)
(5.000347155882453 -0.0007644429815241989 -7.453997872949788e-05)
(4.982394647604204 0.08234420072632358 0.1980462672192406)
(4.976571302333196 -0.006495018037014359 -0.01404013551858779)
(4.88651619019215 0.573209799275555 0.4909371230923424)
(5.033526585424381 -0.04096524400238382 0.02711216043148986)
(5.024590076840574 -0.01663099864231643 0.008708572378564008)
(5.035369691792722 -0.06218883844729116 -0.01120003800339769)
(5.067344591277679 -0.07531446064956118 0.01429912087351699)
(5.05723993176762 0.005373669711857446 0.148443938187329)
(5.095425171851333 -0.0846203796838724 0.06264372897083248)
(4.426728291567946 -0.104019728261212 0.06889721545556589)
(3.215870622493069 -0.2384665403718841 0.2622982796947288)
(4.983696224146784 0.0009289940619110435 -0.001944056781802092)
(5.037070781921767 -0.07920714913793446 0.07510448953660126)
(5.03779039254676 -0.05111532736319115 0.1230862932233944)
(5.074143922893748 -0.0521485866882792 0.02019216754703879)
(5.123429733908918 0.0933962357100403 -0.05235503862266749)
(5.043111401794631 -0.0418182116960166 0.04821363761490535)
(5.001140044885932 -0.001121116689111583 -1.138847479954155e-06)
(5.00687891826594 -0.006400059961290911 0.01441279192390167)
(5.002576107161592 0.0008051706678479588 0.0008546702376774844)
(5.002335184023641 -0.0004613071138017876 -0.001297607492971943)
(4.615548248010645 0.1289955443798874 0.08661010215010753)
(4.506458379012765 -0.05069305442034065 0.1318142197793495)
(4.991875681042425 -0.002535429021719151 -0.008431038636326861)
(5.068993133990237 -0.05987567019142873 0.005490581430106571)
(4.760235066854213 0.04133573435173954 0.06381722409934647)
(5.102316565843357 0.8875392513985911 0.8837586597102821)
(4.37476023742314 0.06319719651322266 -0.1988233092167646)
(3.960305217939279 -0.003993882111320035 -0.05819522169119232)
(5.206770159043423 -0.1244242918846912 0.003808614136137199)
(5.068794311616283 -0.100634030276101 0.01869274335698396)
(3.351653776314889 0.1453680040946627 -0.08303917407245066)
(5.081037817739013 0.01243042991559346 0.02803571188748707)
(5.038735333672459 -0.04112597588917621 0.04649540343424871)
(4.884543368902049 -0.1338893210490683 0.05108176935373278)
(5.000418891574854 -4.16302833010149e-05 -0.000400508619431304)
(5.030358778260541 0.02542643308021921 -0.03343396433508289)
(4.93954039866627 0.03751909659121232 -0.01124985902306149)
(5.07079087033044 -0.05393630667918185 -0.1965697343964252)
(5.075708386515049 -0.1006151236634218 0.08893920296123353)
(5.048344496452621 -0.02002152128381427 -0.1925755355096631)
(5.0014684701739 -0.001739076376078791 0.000217810652917411)
(4.754766591059436 -0.1111701735219107 -0.06031709924697603)
(4.86622574834146 0.04241007565037833 0.216749361587511)
(4.562302249374413 -0.08008523134559246 -0.03586890870559997)
(4.147199175321573 0.01680835425246452 -0.1229362138071679)
(5.080970185866605 -0.06898280374199821 0.08801877168166418)
(5.020280665526458 -0.3383881813619199 0.009641132984316269)
(4.963773750740913 0.002059719927327132 -0.01551099225480881)
(4.549361742385763 -0.08826682393703691 -0.1178118797789342)
(4.976123185795535 -0.009019246981275379 -0.01817204548845184)
(5.000552504880195 1.676471637349613e-05 0.0002228391643940585)
(5.050247094055714 -0.02814361851811914 0.02126897981497847)
(5.145980947341046 -0.1184342781203034 0.01158466150518526)
(5.00451807672887 -0.2050230485660997 0.226301698986859)
(5.01749681995635 -0.01301878911698746 0.08970390536387517)
(4.953843454519105 0.06500470109389304 -0.0563771314005041)
(5.159831629471086 -0.01876695466068088 -0.1064040685785019)
(4.655583466339548 -0.2425378914531272 0.1079965347577212)
(5.049880769724018 -0.05257731480501606 0.006258188745236846)
(5.032380141098982 -0.008021497663302863 -0.01634275471249125)
(5.090389677931236 -0.1808301923173281 0.006695305581726142)
(5.041694325666091 -0.02421105063499879 -0.06648060774730519)
(5.001134119367188 -0.001136561263844606 -0.002821262877619347)
(5.050837825953337 -0.03269805445862409 0.03974643080640467)
(5.053701948467253 -0.07429990367995624 -0.04863954607796098)
(5.011494088146073 -0.01287822559948721 -0.04819766648756644)
(4.966108849030899 0.03507436926088474 -0.179566201794804)
(4.890817784948048 -0.2299668246484771 -0.0696926027702196)
(4.98747516901035 0.05007835601823769 0.06104733883652813)
(5.015575819604828 -0.006950877355271905 -0.000601218555784318)
(5.001455413055043 -0.0005838135052045133 -0.0003267403050982292)
(5.211553022551958 -0.1422512166100454 0.09030394164687575)
(5.051549253456376 -0.08537927035089543 0.1202073818679507)
(5.105638634484779 0.004326000742760683 0.03649452327014419)
(5.037826422681988 -0.03400190735539733 0.01347803007617889)
(4.928677845176826 -0.05598881462903566 0.06200088267436916)
(5.041202133176308 -0.1121215997976898 -0.07156151546814302)
(4.931510203086707 0.2533845901715494 0.10352447293199)
(4.999792214299588 0.001478776751761294 0.001178103104937299)
(5.101466632490538 -0.0831307715866339 -0.2364716328450324)
(5.094640109774421 -0.0924225854981103 -0.05370518785170046)
(5.036484430547831 -0.02089774719379753 0.03185090363169648)
(3.923215804302286 0.1573374668772362 0.2712968134257054)
(5.000562229141313 0.0001304644657030493 9.626118942845836e-05)
(4.997520180628456 0.0003096805270443445 -0.001552876007927352)
(5.005649266164986 -0.003622909978930449 -0.01974235491123098)
(4.999992680062108 -1.938568625781698e-05 -0.003159720022975325)
(3.992254520816502 -0.02507586839040573 0.2602020690653217)
(5.214891828968021 -0.1323081742640838 0.240424042186806)
(5.036148251846932 -0.03702650570780595 0.00665809129113144)
(5.018170476529325 -0.006001797192806861 0.003014132146511138)
(4.965621938694495 -0.004347534116973337 0.04015604966864423)
(4.996407026999968 -0.001470472413079401 -0.001472305228276551)
(4.995989369496142 -0.0004233035445036637 0.0001383938164828944)
(5.001624959226431 -0.1640565234111117 0.06086838365235842)
(4.999689544771769 -0.000888052975567515 0.002478282009916239)
(5.080930661363951 -0.03281075455407664 -0.0001186808919084652)
(3.087885862832711 0.06103357211812274 0.08037472541160215)
(5.025970314065505 0.05487231494091926 -0.1507021138981153)
(4.999252546152173 -0.0007604244396134097 -0.0009146367857129237)
(4.964219913834442 -0.02449091263490749 -0.09313456472835625)
(4.902669762642532 -0.1773600410005344 -0.3040101038458663)
(4.938105840345236 -0.04033110643169907 -0.04129901413456259)
(5.126630234226031 -0.01589610612637696 0.1691468406630487)
(5.060799598157545 -0.06182636112207633 -0.05052467096180297)
(5.011526017668799 0.008504783235836649 -0.2218174940614627)
(4.98278606580143 0.05292930667378735 0.1125662411449762)
(5.025473152066109 -0.01005233854835699 -0.02078068535721546)
(5.005850709513238 0.0125480796285053 0.06304969840729086)
(4.996863893176388 0.04106882267874463 0.06715894183256405)
(4.39396197232795 -0.0594289333450383 -0.18741203622783)
(5.004563614688372 0.0002442475808665806 -0.003079170823436813)
(3.683392682650036 -0.2367657017392983 -0.2498972902777884)
(4.987315998300251 0.1196023316177016 -0.2920669140702048)
(5.000254946500021 -0.001642703992491299 0.0004794143193357032)
(5.037950668704021 -0.04305875027918196 0.007063473096203707)
(5.023271194698579 -0.009281933514469006 0.01962844081082451)
(5.084986226362379 -0.03409876709692693 -0.06819602205822467)
(5.030167086817039 -0.022746080448078 -0.01649204922615218)
(4.673284535774529 -0.06104184171063359 -0.1938558865212301)
(4.755763168807472 0.107645212830508 0.006284346127445205)
(4.348738956463739 0.5041339184169007 0.1692587731981583)
(5.001567674058427 0.0003673882605615707 0.0006301612744010885)
(4.976210172589756 0.1153600452489614 0.2871773483798713)
(5.046652675481121 -0.04279784154631761 0.008757932636832746)
(5.031246687751519 0.002802959982136194 -0.04550150089192812)
(5.034665740157246 -0.02865118938953756 -0.02742896462919811)
(5.104143568945194 -0.06429552855813903 0.1125920886048637)
(4.970478001148934 -0.01107280014230985 -0.01049930095964554)
(5.093467239258202 -0.03305593270770433 -0.08594405580922621)
(5.028413336390346 -0.01479176262089567 0.04462541034070532)
(5.068216324187475 -0.24068810541614 0.06652757453405926)
(5.031689104807549 -0.01181429863551735 0.0482926060137082)
(4.835580846459035 -0.1090615945780225 0.01946321542927277)
(5.108412909853381 -0.1385855658591506 0.04385942020984446)
(5.085066339251934 -0.05123056097897017 -0.02382239634930014)
(5.044849188621224 -0.03646708105473505 -0.008047459044327621)
(4.451691501283781 -0.03205178458530282 0.08514180139838802)
(4.959588659100465 0.1044132154867277 -0.1549904650015299)
(4.997996260985485 0.03849503125646452 -0.02966405565685225)
(4.937134162155748 0.1661787811942554 0.07375686443175955)
(5.036943684556853 -0.02754503200657556 0.01094629619974378)
(4.769291705507605 -0.1602208359771545 -0.03812663439131177)
(4.999088399112551 -0.002173057324137865 -0.0007170300928141642)
(5.026682399120804 -0.02552855192495628 0.05104278936368341)
(5.042352929290603 -0.04862629768680996 -0.04306146416143191)
(5.000334620086661 -8.388913620166135e-05 0.0005795973738732351)
(5.000176881219809 0.0001435679724004643 0.0005697137991777243)
(5.062759974697371 -0.04806795121583347 -0.03244873046847709)
(5.019005885921648 0.0007895000722665454 0.09754049491284367)
(5.013742142422225 -0.006248012754727665 -0.00707820141762484)
(5.001228656097212 0.0004830612938728998 -0.002451044540802311)
(5.000991298610361 -0.003498821191715813 -0.004331540798828458)
(5.013148173195979 -0.003244368633094517 0.0044154316154393)
(5.039823960603186 -0.03099279466076995 -0.01654022541138982)
(5.005355719560531 -0.001725827405545029 0.001513113266196202)
(4.561301310973467 -0.06045619048968108 0.09505281122168369)
(5.011224975683296 -0.003966145854532093 -0.003222234367874325)
(4.99934765799288 -0.0002816162011523853 0.005769389452863888)
(5.003661798056528 -0.001070054366848372 0.0007993744840643751)
(5.087756728982058 -0.1356257379717217 0.1789185248029344)
(5.124929392548356 -0.07012825779770614 -0.08212953727337274)
(5.000954340910661 0.0003205620906035177 -0.0002389990634807731)
(4.98483499714825 0.004538023391776663 -0.001857017275668232)
(4.999941987649303 -0.0007560188038389414 -0.001141703702243086)
(5.033320323968609 -0.0394524741073723 -0.2276278172069802)
(5.122244630012688 -0.03361703835128421 0.009365744161446638)
(5.000573502497001 4.270560192609905e-06 -0.0002410911485618681)
(4.343570124282134 -0.3554252324622434 -0.2667392935232532)
(4.497104589995518 -0.3021165083167818 -0.6459944199894053)
(5.048650348664836 -0.0846895655117961 0.05297074632871317)
(5.000617776043274 -4.352474014362305e-05 -0.0001960801383860897)
(5.001782396658819 -0.000411670909747705 -0.0005334395138026501)
(5.107226973933718 -0.06756961512436629 0.1247657336647427)
(4.978258520549239 -0.006217393499295802 -0.01395383584618168)
(5.079265402541443 -0.1129715534266242 0.1007276705381488)
(3.738267022414206 -0.2349619929635204 -0.04504198405281991)
(5.032944232025722 0.04059335737413512 -0.1590148409280335)
(5.002835552023775 5.355416832162499e-05 -0.0008468582635603221)
(4.610295510983014 -0.001973541370125435 -0.03603864511260801)
(4.02555663188055 -0.1764808704882362 -0.3336767475409005)
(3.263165991795984 0.03446356036468455 -0.3314671762949513)
(5.162715481938915 -0.1062618443834907 0.129783375900373)
(5.043858189212515 0.0211464596457152 -0.2445928777162371)
(4.324172543986159 -0.3022651377620323 -0.03846450223056531)
(5.122769021812692 -0.1481913023267547 -0.1066135305541129)
(3.050092078505351 -0.8315648677827699 -0.923675420457628)
(5.070062858626123 -0.1306682282623325 0.06018769088122928)
(4.978066974139267 0.06753904335559141 0.001004778241209087)
(5.066685373501545 -0.07956082683988062 0.02335775843935489)
(5.050938251385106 -0.02787885882856162 -0.03475208236329792)
(5.078543397430877 -0.1080914392452552 -0.004471926523030066)
(5.093805558133376 -0.03795999390283319 -0.02895363277898822)
(5.057055194764263 -0.03537986796276068 0.04462256006145771)
(4.351402853308128 0.2398875213927122 0.202114422599389)
(5.161089680607442 -0.07630192153625068 -0.04771015394508621)
(5.003063918002255 0.009090561358679063 -0.03058675971881284)
(5.005657174996707 -0.006145899611206705 0.01105447796610096)
(4.91487930293227 0.1330044982492184 0.05438949398577044)
(5.205600654941255 0.09053346217948539 0.4692305755300427)
(4.970064628179388 0.09679602438272407 0.08346044722844957)
(5.026785754872579 -0.01361188043281122 -0.008463239343333194)
(5.102123371916432 -0.06299816480070791 -0.005051515119241397)
(5.085342556062539 -0.08523773790758379 0.02294917985481655)
(5.017038543125929 -0.001654497435819417 -0.02258095706089481)
(5.024092241153038 -0.01942874018768941 -0.00289305308901329)
(4.971662682878002 -0.009573318007580257 0.01713272333731166)
(3.054748845692975 0.2829457967573946 0.3851638745121945)
(4.990239016069831 -0.05799279322532085 0.02299787484426548)
(5.008259792697188 -0.0006976497522792139 -0.01284110980031309)
(5.081982314895132 -0.1681485363405817 -0.1885957105295958)
(3.122979931933882 0.5142259502455457 -0.3945860931432072)
(5.000348418248399 -0.0006618185348187622 0.001920806012431361)
(4.08939402678718 0.6908108925937018 0.773990996303392)
(4.949373606966947 0.1984926712776753 0.1952771334561811)
(4.973747458278363 -0.03616587337203881 -0.02504015577777467)
(4.999544104299228 -0.0009160000782515666 0.001668674493889348)
(5.088181200885482 -0.166770323607018 -0.1171055910737251)
(5.114570852512008 0.1442833982964674 0.8668322405276877)
(5.1011688527366 -0.1656017766706188 0.09538118404847765)
(5.001101903600027 -4.558739013409398e-05 0.0002307942151807577)
(5.013452838736693 0.1899306512953104 0.1419921129061993)
(5.000564133115241 -0.0006232188612389456 0.0002567638948838457)
(4.775500104146829 0.1447393291927028 -0.7980260579588099)
(3.879313237627321 -0.005946231137633021 -0.1858583151963841)
(5.016452411535643 -0.01419059259037098 0.01401287479925716)
(5.060329313149212 -0.124726404971057 0.0995956594385924)
(5.069695549044292 -0.05052273942679784 -0.0224063757915402)
(4.036176791785236 -0.1530892498170825 0.02219117040556944)
(4.594122942720632 0.02163725257863111 -0.02150749609667788)
(5.000854607233856 -9.986482544262082e-05 0.0003023799595041079)
(5.00052585717488 -0.000254413001295746 0.0004533297994863618)
(4.991391200839141 -0.00579970926857159 0.01806474452690409)
(5.06581142200289 -0.04555595206974657 -0.02459471244495444)
(5.047720060422515 -0.07499122789758132 0.01720796527374336)
(5.001817971725928 -0.002793371542887456 0.00381972870144043)
(4.975771403310226 -0.00465994623191224 0.006005744652976278)
(5.002439052508781 -0.00188282314743397 0.002322658694257456)
(4.9986253263139 -0.002957386154123216 -0.02395247940002759)
(4.991453828934699 0.0003266196399407071 -0.01708452765225529)
(4.932739594958581 0.004824539411334953 -0.03627158046571094)
(5.031689113221853 -0.02538489208227424 -0.01827010393644611)
(5.073844511307454 -0.00179310708687551 -0.04817318362170109)
(5.17967790580037 -0.1448455321681289 0.2378237197597516)
(4.989210724259783 0.005258929312655541 -0.001604179378750434)
(4.921688275228224 0.05812040813661024 0.02704984233609666)
(4.610647199143097 -0.06485443242457817 0.2150743681552482)
(5.036008780479896 -0.1020479297718126 -0.05680261108453764)
(4.993904392552936 -0.005200702969762038 0.004250332321135262)