/*--------------------------------*- C++ -*----------------------------------*\
| =========                 |                                                 |
| \\      /  F ield         | OpenFOAM: The Open Source CFD Toolbox           |
|  \\    /   O peration     | Version:  v1906                                 |
|   \\  /    A nd           | Web:      www.OpenFOAM.com                      |
|    \\/     M anipulation  |                                                 |
\*---------------------------------------------------------------------------*/
FoamFile
{
    version     2.0;
    format      ascii;
    class       volVectorField;
    location    "0.2";
    object      vorticity;
}
// * * * * * * * * * * * * * * * * * * * * * * * * * * * * * * * * * * * * * //

dimensions      [0 0 -1 0 0 0 0];


internalField   nonuniform List<vector> 
19631
(
(-0.0002050580643116541 -0.000332626865533882 0.0005617416704923898)
(0.0002074938995752508 0.002675943935573319 0.0007882391941271873)
(-0.1102743800397006 0.08039549555737116 0.1232797228658724)
(-1.969422022143934 -2.152395322366269 0.4140525895862358)
(-0.001762838651385928 0.001988679084745768 5.404321982538157e-06)
(-0.02674401817434829 -0.04552340090081722 0.02885957029226961)
(-0.005286789258871199 -0.005181877911115495 0.006622956953605132)
(0.004539076193098042 -0.01324834874081731 -5.713488604640238)
(-0.000196900400397496 0.0002800188461217847 -0.0001287286176876864)
(0.0003235878685535305 -0.007088195259265471 0.002650245005991322)
(0.0006375434318988196 0.0003021414637572207 0.009499073531572508)
(0.0007696227458635317 0.001684370160893994 -0.0006786601208679443)
(10.44827723755389 16.9653251105547 5.079217835073655)
(0.001558892392059152 0.007530507828928635 0.002179696914492456)
(0.004589418246942559 4.511066489948888e-05 0.001251654682679307)
(-0.002977477346885133 -7.132389426174141e-06 0.001773603353988911)
(0.00516708817638617 -0.07973710257663323 0.01572469113060596)
(0.0009234334781470733 -0.001321158704025687 0.000215751906523164)
(0.0006765294034172457 -0.0002451898739792406 -0.0001639425840058767)
(0.0005881411777551807 -0.005707498450395083 -0.002362164446076233)
(0.0002135270860945314 3.939507184507267e-06 0.0001296284544050819)
(-0.001806439641592131 0.01043373893302217 -0.009795592707718194)
(-0.0006154244453122043 -0.000659525914128001 7.256180418057008e-05)
(0.007816222701348383 0.7064016859290334 -0.1483806688941716)
(-0.001374899702085139 0.003034097796623785 -0.0005214993964482638)
(-0.002859107201533582 -0.0005935161610694777 -0.002566648644074411)
(-0.005619571431731358 0.007298120120978132 -0.006286093122170287)
(-0.0003129966931685453 0.01834789964934016 -5.911482328000687)
(-2.514003712106834 0.6383485375779483 0.5842667694270726)
(0.005280163527850773 -0.001421123310168142 0.002982409865680228)
(0.0001266359506142586 0.0003602159717775899 -0.0004351144350461845)
(-0.1192786964051645 -0.06890760625869657 0.01890894735589858)
(-0.0006077860574658342 0.0001203578375249526 -0.000308059118933477)
(-0.006034557837826615 0.001442179454999619 0.0007059280358682541)
(0.1065748966484329 -0.3197491923428008 0.2813061871676772)
(0.005611274439469763 0.004699446202786072 -0.0009897004359423057)
(-0.002155107351579241 -0.002265897322514977 0.004153736287913903)
(0.0004024969234427366 0.0002041897366343223 -0.0006625699340397249)
(0.04019737761940042 -0.01002649695979339 0.03969498725168925)
(0.01881470609723416 -0.006119141291698986 0.01050249024474559)
(-0.2290026372991985 -0.03125536835484866 0.0156273826601507)
(-0.8085261628836935 0.3215031070468571 -0.1353616622180587)
(0.05033402294797236 -0.01190377987303327 -0.02826083096362774)
(-0.384188005183044 0.6570810419723518 -0.6150252413836068)
(0.003060850699356042 0.02071703641050908 -0.1273745224232464)
(-1.820332229030702 0.4323965593417702 0.224923918121863)
(-0.1967028273515271 -0.2501720230103825 0.1047041480504363)
(-5.329337500604146 -0.09612207406373796 -0.6620748238572544)
(-0.01240560471372299 -0.0003713947115372047 0.006836435581279283)
(-0.02875646516903385 0.03625920729449492 -0.000127740139529129)
(-0.0008468749428628257 1.974631715011136e-05 -0.003728940866408211)
(-0.004320785373603352 0.003177907465407285 0.004817177885056801)
(0.244953685046215 0.06188407980805403 0.08051915500408882)
(0.005548403103485304 0.008330269972040685 0.003327659913540329)
(0.000500871778753907 0.001399712198108227 -0.005783327423041069)
(0.03570521527057116 0.007396608715070991 -0.03335039077238178)
(0.1159512642548781 0.1425169941930083 -0.002878400467632645)
(-0.003262971156318381 0.004444269674960405 -0.0008758145532107293)
(0.1357912338795032 0.0868449249899902 -0.02019395514266185)
(-0.07918651010373778 0.05743504879698916 -0.1993360656858535)
(-0.1574041064392693 0.3718866411027045 -0.1938415979355073)
(0.1456210283203599 -0.5615439896699514 -0.07738403646871195)
(0.04630524759380619 0.7379875452606426 0.2010820319330546)
(0.04815299413434504 -0.09625887203414181 0.06968242088813967)
(0.3044386673071603 3.378392823052658 -3.774427333844462)
(2.198082288394185 0.3905519480669268 0.0904045089838639)
(0.007659670145932732 0.001153392323820425 -0.0106059575145122)
(0.00151465119474825 0.001542534168230622 -4.743923529817771)
(0.789264524937953 -1.157620643440483 -2.586040492649736)
(0.01207120356469408 0.01668328638612293 0.01218959672029763)
(0.09300401240747719 0.7724756180059925 0.6658143696901189)
(0.04302420352511312 0.237261799171273 0.05624264115693783)
(-0.03409880176780375 0.001191174277265113 0.0123985870543836)
(-0.8569406716430892 0.2468272620946222 0.06512889973732394)
(-0.02577740872454649 0.02957016327931576 0.02719946531949306)
(2.573686058646891 -0.2774209717026099 -0.5999120759389827)
(-0.002690855665844382 0.002267980589453167 0.002989694358239097)
(1.882566266314541 0.5671925482366884 0.04123845656398323)
(-1.409824405358388 -2.435253346497207 -4.027228550982479)
(0.005238637863962208 -0.008271420061875383 0.002520792100558298)
(2.184439760666573 -60.73817105422614 -7.748731531786881)
(-0.04699971021416119 -0.02927679487479404 -0.1687227912922702)
(0.7525365280449307 1.574008165386755 -0.4270936554528357)
(2.32918092620209 1.926293283135518 0.1793294396717355)
(0.0399796330041325 0.02265083423278623 -0.02351576679492248)
(0.08154312859694256 0.008843430391504026 0.02964263115604358)
(-0.1415713171149392 -0.1051502191017886 0.09302672306694634)
(-0.3680923811800377 -0.3681518249666801 0.5797417614060832)
(-1.186391317485041 -0.08850292128491621 0.3171412422869813)
(-1.173924780489669 0.08669333389928946 -0.4344239391910082)
(-0.04111997453352204 -0.04706920721908785 -0.01137184278490969)
(-0.00122572490691142 0.02927787991289028 0.02656941623473141)
(0.07563273643049534 0.200001634641496 0.05884534153739274)
(-0.01822238755434059 -0.05384906807830715 -0.05286707338659884)
(0.02861851239944568 -0.01069298600108994 0.009418949741652872)
(0.06243696030660123 0.007622776602588782 -0.03359184723480493)
(0.7506688884796975 -2.018272183280921 -0.6555237984812602)
(0.2493275905057135 0.10450043264098 0.0359867024273559)
(0.2111883749481454 0.0346442199644848 -0.1969172254281696)
(-0.1234264864473668 0.01028728909647779 0.01316857408533102)
(-0.000765371599896995 -0.0004323023580604683 0.001234655523424401)
(7.949203901866086 82.6004730647944 13.30859952133454)
(0.001029810674338935 -0.007374375313989886 0.003337366001638926)
(1.463085394035212 72.60948148560644 -8.947716860938426)
(-0.403192281670875 0.0430962664805857 -0.04218570766713237)
(0.3651104902067273 -0.2272809573657874 0.09860208891124742)
(0.0005192137416132987 -0.002418616911868053 0.002296701579499379)
(-2.093426774240921 -5.340075954759415 3.462830038093114)
(0.003716583064437084 -0.007904277983711679 0.004609203671878115)
(0.002262049050916497 -0.00439729161726755 -4.590286267478187)
(0.006644759516907101 0.001641308951950538 -0.005603674840230619)
(0.3209667486100561 4.909546716474847 1.591960100225004)
(0.0004990645197824307 0.0005314030228498147 0.0006975087248146306)
(0.2130158500051929 49.23004619642069 3.073488584826963)
(0.02654362053581201 0.06192940054158322 0.0524244670372096)
(0.7203565561170863 0.6511115274934571 -0.4355415747955188)
(0.2476328885998348 0.2595276394354564 -0.1224115588421204)
(-0.03495170845671828 -0.02503523812893361 -0.006617367961189936)
(-0.6105185991711339 26.99510045758974 2.197513458242509)
(4.738832330183757e-05 -0.0001230838889365191 0.0002043626710179756)
(-0.004798417558452865 0.007821259941553395 -0.009613383230927326)
(-0.0002375182239839264 0.0008184744690796028 0.003866908515778815)
(0.01231418716357178 -0.006315206134029553 0.005272040167705263)
(-0.006647825853954585 0.01903297868236076 -0.02403253760691936)
(0.001832045983398933 -0.005337862390706813 -0.009411567647803244)
(3.89970878335711e-05 -0.0007099023799867217 -0.004470875643922837)
(0.007000297946700074 0.004081525234870863 -5.664210692504205)
(-0.007802891263442146 0.002025409475066977 0.00168661647899634)
(0.002321830945143097 0.001420225642842968 -0.0009961479850266047)
(0.005766244742620419 -0.004468700573500261 -0.003283804170598156)
(-0.003881046166285444 0.004982341782211196 -0.005847486424531955)
(-0.8246011722432725 0.338125952593325 -0.03734451491423017)
(-7.300555467030544 -47.1761701848578 4.679983487723076)
(-0.2200936529912345 -1.281874557797992 1.243359964378308)
(0.003736602277511115 0.01043618060844819 -0.009712910407640529)
(-0.006534918092921925 0.01158570237251232 -0.009831314404964646)
(-0.003832479213948973 -0.001487353414716336 -0.002703600030360758)
(-0.004029153264238638 -0.008126429024739566 -0.000679160997022652)
(0.002567827300371358 0.005380613412634455 0.01042189823829167)
(0.020022501157125 0.01504438916858595 -0.01201229402088263)
(-0.001430502099027501 -0.002535890121402024 -0.002290299008153996)
(-0.001524067846095298 -0.005351073510757198 -6.071255629612963)
(0.03987586248711431 -0.05204988891942181 -0.9903285363766933)
(-0.0188430307857782 -0.07216918932748882 0.09479056407460695)
(-0.01383619753721774 -0.1173589998180658 -0.1737624224205113)
(-0.0442024999980594 0.03119550798069655 -0.01959899261140138)
(-0.01360246548313228 -0.04162238725097059 -0.02291398773871391)
(0.001416694670383013 -0.004926767840058245 0.001335843813605323)
(0.7081029288454381 1.332588897981648 -0.884331922410498)
(-0.02023547530285963 -0.1795448071982422 -0.3234814888558294)
(0.001388091996855072 -0.0008328282264425655 -0.001443419000864383)
(0.001633952762368294 0.00294376830164946 0.0001175044924023717)
(-0.001070062399849041 -0.003075035808415464 0.003240536430324278)
(-0.005393023465842572 -0.01824584571531896 0.01598267410554641)
(-0.001691445206290544 -0.0007221134241300719 0.003153210798063168)
(0.005570318702610037 -0.001931831984865138 -0.004247767835790092)
(0.3008261458556905 -0.05982448054937271 -32.15243535331572)
(0.1746506280306876 0.02510455425357468 0.02494373190162997)
(0.03098229700292197 -0.04479685063407346 0.03326969129284218)
(0.003426759977742174 -0.005653833794580883 0.005933862762060016)
(6.78252667597421e-05 -0.001271355589287025 -0.0007656859315400212)
(0.005295655411461832 -0.004910637918189189 -0.008023302907497303)
(-0.1010661695968195 2.841336516993415 0.2826534538521269)
(-0.001794102748952263 -0.003564840445904771 -0.001121595751895267)
(-0.008557754809950878 -0.000521848776302584 -0.003946364120180615)
(0.001276163992118945 -0.004930511715432806 -0.0003930966681674019)
(0.0008951838739691695 -0.00299786787001049 0.0006730037240470594)
(0.0008580438783273685 -0.001255860622737032 -0.002284458761491402)
(0.001637732916036531 0.003286771410700048 -4.203340532505045)
(1.014017425630991 0.06229344712392276 0.4559530621548042)
(-0.003997029552789987 0.007830061852423621 -0.001193562566603226)
(-0.03750552829294733 0.06145318897583048 -0.1286403296772078)
(-0.01097297650253651 0.02438462812127407 -0.1063213559660218)
(-0.003221919301702424 0.02468038033009964 -0.01593998818376748)
(0.01387785723026386 -0.01363128468622534 0.006729903408858751)
(-0.04762149267052242 0.001536522651765449 -13.23181384045873)
(-0.002681351033787277 0.002821439322593172 0.003082068560308229)
(2.044632817022388 -4.505613453052114 -5.712924351218256)
(-0.002978417784150936 0.0003657186120757982 0.002711521102184635)
(-0.3311248027327438 -0.1580093164475279 0.05152759708041033)
(0.09921820586828388 0.2853465700508422 -0.07066605943584248)
(-0.0002358708861204816 -0.001517594375848817 0.0002381587160363987)
(0.002538930936922932 -0.002286934047465274 0.002863576337937733)
(0.00283476869376914 -0.003116325143827741 0.002862514275538992)
(0.1025001995028296 -45.36223809742266 2.571978726499687)
(1.019264397427623 -38.21644065402735 0.5966209308973056)
(0.1625749271332603 0.2576204195533812 -0.212526320787976)
(0.0004868407002234095 0.001009866163390276 -4.808260182943703e-05)
(0.1907648877570219 0.2070174326306262 -0.318287124817745)
(-0.01237002330667439 -0.002265436220935972 0.0004330112624448918)
(-3.31850463326393 -37.90167299561688 -1.836974697772632)
(0.03283010917475603 -0.008856255757757156 -0.002247064680559796)
(-0.01919117233347076 -0.009496910389231603 0.0107351111907299)
(0.04197145487387829 0.04502634702128164 -0.008796060031154313)
(-0.5569495142574145 -9.447675533146413 -3.211088360969652)
(-0.0231776303624235 0.1631218165870503 -0.1820700737136973)
(0.00294283633645488 0.003098647159014407 -0.0005242683535542176)
(-0.1938513423298209 -0.2134520952217927 -0.196300936384661)
(2.396288567958221 45.5069990381011 0.03989799528821864)
(2.624671989992925 2.908572710055948 0.3641521811176792)
(0.002517711263481727 0.001018957326685124 0.003806128032099873)
(0.5983987470346944 -0.07852367517229597 0.4808038541612829)
(0.5515320212620443 55.91868400864299 3.843596277066693)
(-0.5113855310797211 7.865173438743536 -1.387016406668058)
(0.002736452495478703 0.001303420553790002 0.001910696249394307)
(0.003068500046696572 0.000321689312880986 -0.002589455766928856)
(0.002077899448081792 -0.002053641133201867 -0.001810348071284274)
(1.488992179466329 6.856910911733882 -0.4909585163804087)
(0.0002415809843386273 0.0004373262629172443 0.0004230343635501984)
(-0.009772299874278976 -0.01491504378684855 0.02681520108780646)
(-0.00949950007150625 -0.003104650960225306 0.03249619094893922)
(-0.002629949603190627 -0.01159246612950146 -0.01718229931056703)
(0.04017997274489254 0.02180850578811909 -0.0238398893816576)
(0.0004981029135365669 0.001197531496010591 -0.003990642784853987)
(0.015840247128216 0.00674667010419952 0.01172086472267524)
(1.587490955264592 -66.17619631927357 -3.208483610324034)
(-0.4295350587493422 -0.3969748145433928 -0.3558193138742955)
(-0.2403243449877078 -1.803314450500503 -0.1762980032895185)
(0.0001721458582393087 0.0008062626979876352 -0.000688132159851099)
(0.2671177452573305 0.06337734563140451 -0.03659735922620984)
(-0.0004029336113546413 0.0007754617468180031 0.000666765739587606)
(-0.2696728536786879 0.01815114989916762 -0.3576164805102723)
(0.001826180816528912 -0.001705514683478207 0.001602190265385887)
(0.1215665865624525 -0.1489885515432714 0.5063654773793861)
(-0.01410787559088064 0.03246343301564414 -5.698572743320245)
(-7.683922828893117 0.340366526315611 6.045712366367579)
(-0.01827955447701049 -0.01228228563040385 -0.02937514344469745)
(0.01827976989402369 0.0006374571184610562 0.004920355641623745)
(-0.03702058050197397 0.8334785711153098 -0.07100003428534982)
(0.02272982040485128 0.04125941805320654 0.03228082200070601)
(-0.3218135340363242 -0.09771748417161866 -0.1768228275859416)
(0.07096252011345673 -0.02497814155891419 0.01556916738234516)
(-1.002775773024319 -42.34642471557214 -0.4558640342148288)
(4.694916566163387 78.04740904126221 0.3832618786386686)
(-0.005127559986941973 0.01279554794822521 -5.985258839122612)
(-0.2042316277378156 -0.01175190769775772 0.04816986101769827)
(0.7226305384411421 -0.2088914051266202 0.2526738457567251)
(-0.05001685729233176 0.01537257115661447 -0.06380230926555018)
(-0.540020695287399 -1.053037707434389 -0.4160097506024848)
(-0.04143263174336406 -0.007143532438310366 -0.03170234353913801)
(0.0005069432880098817 -0.001127464223480854 -0.0006921726234612212)
(-0.006251396837801861 -0.003006360182015076 -0.003078501692122467)
(-0.002368444744622074 -0.004055515685967721 -0.00503253517237104)
(0.0005826331875452336 -0.0002012760109863595 8.351138421840506e-06)
(-1.003845810658859 52.32443355463503 -1.382805237044005)
(0.3543497548291117 5.378972779325731 1.412493615135098)
(-0.003889406511805982 -0.0001869243805438247 0.0004678086471074999)
(0.02451704695521333 0.02205176162940274 0.004979503602390412)
(-0.02273905316836589 -4.991169279315097 1.444970841456822)
(-0.1628344531187755 12.60455363236659 -4.818207524705008)
(1.640864343791166 9.483890711969149 0.3418192305990875)
(0.639229782015259 -47.77603888435556 -0.3028527387323223)
(-0.03574091866883136 0.2416588629953976 -0.09021496073462459)
(-0.006944856828035417 -0.21895611304709 -0.01008456208977742)
(-0.4182272657723028 42.78187918159271 1.689333208728611)
(0.06820931903247192 0.3149805357857022 -0.2398608365261132)
(0.04294694618173996 -0.02436564525322699 -0.0260028959543538)
(-0.3419520617660577 -3.992313595760657 -0.7606414511559165)
(-0.0003015337696352214 -5.659346274042919e-05 0.0005086493959324228)
(-0.07728765955025133 -0.4889507648038353 0.4639628251043405)
(-0.005981968905791821 0.04388173509005119 -0.03040553753012998)
(0.2395180451937415 -0.1782367438220633 0.05759514022950232)
(-0.05021331027646114 -0.03098911675399127 0.005949995186927154)
(-0.2037105535153513 0.02171587971344482 0.01973657957871715)
(0.001182851948577174 -0.005266137711176945 -0.004983548759262636)
(-0.3691944320073379 -0.590076126175066 -1.641674393672418)
(0.2150373712178321 1.028837867279314 1.189474364261417)
(0.1867834823295744 -6.020081083884392 -0.657673702375343)
(-1.293788973941758 12.08084938285381 -6.89473359051743)
(0.03291024998433881 0.2180793269713442 -0.1455490219490354)
(8.5364134050047 -1.231234135129671 -9.496451150429673)
(-0.009907983557376288 0.009800552340571306 0.009855447594536231)
(-7.055982235075821 -7.322753344798397 4.096836353388201)
(0.001776494565995611 0.0007939212134765276 -0.001207462259519931)
(0.0003526244282717158 9.274662828418487e-05 -0.0007912148887148035)
(0.0073221121258744 -0.0260998867269872 -0.0004343686481870675)
(0.6887320572536433 -2.68920402328193 2.475554477592695)
(-2.98484186541545 -8.788462732888982 -2.809210923025997)
(0.04051546351854935 0.0041078999978482 -0.02044466473716717)
(-0.2146368537200752 -0.377323009368243 0.1937881346165575)
(1.177388355781462 -0.2214005025417849 0.5174270708363261)
(-3.043004530945992 -6.244645985411526 6.63870230228132)
(0.09960386240427091 -0.06488251564713257 0.01338460656185978)
(0.002192537355001141 -0.03053328271628352 0.04969263639029921)
(-0.09809809531260674 -0.1357318614713081 0.9990025220898827)
(0.05111770655510039 0.01592456663421412 0.02232083544851792)
(-0.0004267429255438882 0.0004364857323436996 -0.0001810040396374662)
(0.02650044885450964 0.004454779703285849 -0.006678590165128974)
(0.02160198496579862 0.1957346556635498 0.2725261590663655)
(-0.0002838467342485967 0.006816276615614165 -0.001348771727835128)
(1.261829080650947 -0.4625181046827549 0.01747838018200257)
(2.464844665765216 6.955276558030715 -0.3423547365328903)
(-0.1406003435729098 0.03057613559295404 0.02033336468658896)
(0.003479379149207461 0.003537712552771097 0.001536403022500174)
(-0.0002096835800858984 -0.0003031423467222208 0.0006762113584666484)
(3.801179032952982 11.58849705879636 -7.791028725314285)
(0.4336565089240075 0.2018327055538552 -0.08933262217534563)
(1.236293167066177 -0.5139297022956577 0.2587833602551161)
(0.01181704641770867 -0.2072386919829257 0.2045787880582684)
(-1.262252005424471 0.8688014840967457 5.106383208066146)
(0.3085517033803067 2.196079928117698 0.1457786851545161)
(-2.640116506072771 0.5872671732903963 0.2656306701647695)
(-0.002138631897368763 0.003018865784779785 -0.007094726013190873)
(0.01123436229502525 0.08271619742431324 -0.1786094253620404)
(-0.3568289977315888 0.3093808595009946 -0.06359959038910692)
(-0.04042416852791371 -0.00275618348207468 -0.001173120712470538)
(-1.726342653179607 70.75045323464064 1.151029611352429)
(0.001067393082150796 9.700172509811245e-05 -0.008759157885640233)
(-1.661391631637701e-05 -0.0005971173232469005 -0.004685049521917731)
(-0.006915564125898387 0.001964242927011898 0.006747515331656243)
(-9.01858491923936e-05 -0.001583343394670607 0.001036195094873982)
(0.6843733970488944 46.25359735032438 -1.391338768503296)
(0.3690085805278607 0.2477495984165564 0.2246869273705256)
(-0.002177133291378631 0.002383326480139615 -0.002412916738151888)
(-0.007041509217885634 0.01598782657314145 0.02162034083669745)
(0.0214455411611785 0.03522243117957193 -0.02394546169991405)
(9.542998659634822e-05 -4.394396132547496e-05 -6.654707385521461e-05)
(0.000425431607969875 -3.071484229577031e-05 -0.001069793904641106)
(-0.2805675857466736 -2.209560090250936 0.7690413843880393)
(-0.0002837626200001244 -1.132512095479522e-05 0.000169683948669619)
(0.05304486156953142 -0.06431536659522198 -0.1472903249708262)
(2.2390731170647 75.20660223204921 1.413554609189981)
(0.3235003716563311 -0.1705416459979262 -0.06473106338379431)
(-0.0006848872556093856 -0.0003480038853775508 0.001951319242941777)
(0.1505491477535498 -0.2986376579800397 -2.629587197618138)
(2.9971320676047 0.9575625445309081 1.417459632914526)
(0.01920562329738838 -0.02921641672714978 0.03384256335644874)
(3.61157624240725 -1.479538521208138 -1.714393159698931)
(-0.0658258553574777 0.03419633280470211 -0.0007231421684687947)
(-0.07852506148992686 -0.1336173920772276 -0.03174723740876121)
(-0.06977424099742557 0.159158462793798 0.02742500153644851)
(0.02033051311186692 -0.01817637524006633 -0.01153155749623069)
(0.08535235797460705 -0.002849250733178044 -0.01219457527820173)
(0.06054845258113557 -0.009205546109023521 -0.0275252753787538)
(-0.8861068106419506 -50.18955157719949 7.220778217279628)
(0.002644959735676981 0.005796906786540369 -0.002146547720229964)
(1.7375996878935 -48.13099164652914 2.233263049530045)
(0.3422150031278527 0.2332650841008256 0.2005240261252125)
(0.0002366719988369782 0.00154291810915304 -0.001742207282559353)
(-0.01756683324751935 0.007287146978499612 0.009293430749214199)
(-0.03149548003718865 0.001339287495827385 0.004644452957407055)
(0.05707884232325185 0.03697553136605089 -0.04483414520230513)
(0.005248728354567026 -0.007186156222695896 0.008502860967820139)
(13.83394354256561 17.87029958891507 4.823444149948142)
(-8.385070548497429 -2.271270575631849 0.06814851705489433)
(8.962366233877388 -4.668728914763298 -7.474387267183547)
(-0.003262399087734494 0.00271788985786969 -0.008306196940858013)
(-0.8996175889457082 0.3069184540286212 -0.1363700057988435)
(0.01026766864185624 -0.00977642151358429 0.003279806497784477)
(0.06347477207941733 0.01622398398509881 -0.04334634152524811)
(-0.005447638759174535 0.02327780152636369 0.01953134327524383)
(-0.08929607560062856 0.1031056386870347 0.3093037385028281)
(0.04377542952152935 -0.7989350059327613 -1.816568442194355)
(0.5618784655508876 0.7951577945597287 0.03762730096269218)
(-0.001575232709580897 -0.0361571270233968 -0.03041418593632825)
(-1.187196366718202 1.726865800329617 0.9142338480219503)
(0.03694297016272657 0.01215835481232919 -0.01198083563639708)
(0.9583203159901666 37.79587649185731 1.874909670620798)
(0.1890907561132332 -0.4249815168097666 -0.1437669616525656)
(-0.1701342298228452 -0.06013858746756797 0.05794118379837035)
(-0.0107065045356298 0.002847248749795868 0.001753600095559244)
(-0.9400602984201849 7.905638858098267 -1.113074033982364)
(-0.7941558004005865 -0.2485294705834703 0.1663434378786232)
(0.02186006391420544 0.01771618445402758 0.05251089636698267)
(-0.638800786344108 -0.3086908644866458 -0.6790544922155601)
(-0.02012424453271321 0.01621996746054449 0.001321421104769146)
(0.3142809971167801 -2.96058470756875 -3.662699875579896)
(-0.0009606428425549077 -0.001824240299091439 -0.000289924724394481)
(0.01703993727609077 -0.0008415470777607074 0.01190692381967602)
(-0.4694211061077653 0.05500510474798152 -0.0240296466448745)
(-0.0005423689895786082 0.0002077151985993273 0.000275764108052991)
(-0.0004110395427955221 -0.0003407301644283045 1.110529389142636e-05)
(-0.1778127430352891 0.004805548005208292 -0.07705736930449458)
(-0.3733774034544 -0.02938919208222622 0.1785334699598103)
(0.006563786059788995 -0.01058677407331606 0.006877074355048967)
(-0.0006822489655035208 0.0002487709780730025 -0.0007354137524042046)
(-0.001091562534237942 0.00965041089064728 -0.01265396423422289)
(0.00299160843497456 0.002110118117598544 -0.001842171821284562)
(0.01476152778526102 0.0001709331529333048 0.002880198300608545)
(0.001687157967651006 0.002043186682858163 0.002443510761535127)
(-0.2038780763268507 7.10522171419931 -0.3328622573090095)
(-0.002592176252611874 -0.006612967780675334 0.003309999001988841)
(0.001595551531546895 -0.0005280665074461682 -0.0008511320774402608)
(0.0007767579281019734 -2.41019939422563e-05 0.001661444812333527)
(0.6329520640133628 0.5641762756695793 0.7329091229589433)
(-0.2723764323346004 0.02887762637025068 0.0121488151095784)
(0.00016988469569497 0.001264015427789688 -0.003535677737018404)
(-0.004200909359456864 0.0124332928625886 -6.572202079590823)
(0.0003413287517184066 0.0002868111424334407 -0.0007514967075635359)
(0.8803364927842954 -2.353653515532854 0.5445768955935901)
(-1.373080792489179 -0.03275339319938819 0.2289342507086562)
(-0.0003013291403673999 3.34368336935199e-05 0.0001863664556399571)
(-14.83986229331987 5.830875566210386 -8.22142728150963)
(-5.993216115301093 -69.21411362286071 2.570277114962751)
(-0.05377403568716477 0.09057507719445562 0.001255322674039786)
(0.0001589192134252286 0.0001014171269817397 9.5078275208286e-05)
(7.754718432010255e-05 0.0001819222180616486 2.988813166317295e-05)
(0.041261761349322 -0.1005464813212675 -0.2585155154031215)
(-0.01355827063076398 0.03219526399608545 -5.622925637047271)
(0.003914699770181107 -0.2894518294631998 0.1268923177834752)
(-3.351872321001939 -86.08490003391347 -10.688415159107)
(0.1191961979424422 -0.06053803159937193 0.304409488563585)
(0.005826945552301665 -0.01522610054539155 -0.007580765901857646)
(-0.5638482371629447 -19.01495850373724 0.1375413948240893)
(-2.295730929474241 -4.223145148210524 -9.347474144178548)
(-1.641519742817749 -76.73447695135059 1.645613787881334)
(-0.3188093706587383 0.2391514259569018 0.9336761189659575)
(0.4397857003376174 -0.8955011774253341 0.3744087906088774)
(-7.926070942796246 -86.15835263635427 -5.137708291884532)
(0.2826012292944349 -0.6466684270244685 0.07881499052469534)
(-3.653721290682546 -60.02980221836826 -9.180701829094188)
(-1.441615430728494 -0.7162619166121365 0.7036060897310603)
(-0.2045418994100016 0.04701093595930712 0.06897638075526259)
(0.03454044052907849 0.09214010001264571 0.04396752243663151)
(-0.003565659222295438 -0.003669198595398039 -0.008614726014066949)
(-0.1632865421563878 -0.08668695191026811 -0.01431028365350411)
(-3.73651333858789 0.8887775805728773 1.012526021625773)
(0.2887834574355337 0.03781991496531723 -0.1347556502319989)
(2.86668195689483 -62.06934880938972 5.473475795595941)
(-0.2190231558350627 2.562961097562209 1.477483977971549)
(0.08773060776278986 0.005950051647985989 0.04458108303498713)
(-0.008776361755690538 0.006542363130133195 -0.005516135384690207)
(2.941868192556171 0.6778359026065768 -0.1959611377975255)
(28.37561434293582 100.2578047545139 4.905330929847766)
(0.1909044351563895 0.03964102904557876 -0.08470810455934354)
(-0.01645627362313357 -0.0002610965162214533 -0.005664908362108211)
(-0.2976959188783536 0.02287280209070137 0.008178480443186267)
(-0.04305150245029876 -0.05005861030106987 -0.03232773695827392)
(0.02888963663547823 0.005939933266209167 0.002924870318298377)
(-0.01378799810495578 -0.008195711229498739 -0.006206777550115387)
(0.00222402030354315 -0.002542572995107149 0.003733263472883462)
(-0.6257026098724998 81.19705752072572 -6.221581704108821)
(0.4971814965700714 -2.010398406199386 -1.547654671193474)
(-0.002297954516313378 0.00405993389588557 0.0007300444738427808)
(-1.776563595306882 2.622134330132992 -0.702833550287626)
(10.33302042910962 17.14167945090353 -2.216281220723065)
(-0.0003801290374750749 -0.0001422006758542404 -0.0001102107930555576)
(-14.98254803462618 -17.82286718524453 -1.154467017474949)
(-0.2571062101543481 -0.141266049524081 0.136573322474017)
(-0.1880677566973221 1.052924630382859 -3.349668974845221)
(9.126037508834577e-06 0.0001804462363234033 0.0003488919626402678)
(-0.240382505626745 -0.98982645073107 0.07426560268531264)
(-1.179788322543055 -11.67346836616673 2.660472788575466)
(1.001702523918617 0.6641788579342381 1.240443432984141)
(0.0002606249601341812 9.84814790744419e-05 0.0004667778551530971)
(-1.041830404254153 -3.31876475472017 1.064678322180766)
(0.0004718574793184086 1.016484814186246e-05 6.720213539678258e-05)
(13.77679717331422 0.7552335501333245 3.47522389761216)
(-1.800517664539479 1.045160212475387 -53.24733701189886)
(0.01699879913551621 -0.01500837967895643 -0.002063617530506092)
(0.1018891447821476 -0.1570593195774964 0.02972108611701375)
(0.004752349757747173 0.006712114353749342 -0.04976558421045661)
(-0.3021064542360641 8.775083472341599 4.359293465109546)
(-0.07154392125864822 -3.191099685059427 1.052784712497906)
(0.000105015596020403 0.0001557512268065231 -0.0001406264977489146)
(0.0003226618075224596 9.593579819256752e-05 -3.97825918268652e-05)
(0.01463609908005472 -0.01542715726075198 -0.00563809715089554)
(0.1491580808150228 -0.05909280328735176 0.01122189656143634)
(0.06359820226083432 -0.04114779952409352 0.005948114729064428)
(-0.001968162247693517 -0.0007227445068907038 -0.01373076903088699)
(-0.003550240781790762 0.002105466387588075 -0.0001621441843112879)
(-0.0001906582495563236 0.0007265683998206852 -0.001782247660281114)