/*--------------------------------*- C++ -*----------------------------------*\
| =========                 |                                                 |
| \\      /  F ield         | OpenFOAM: The Open Source CFD Toolbox           |
|  \\    /   O peration     | Version:  v1906                                 |
|   \\  /    A nd           | Web:      www.OpenFOAM.com                      |
|    \\/     M anipulation  |                                                 |
\*---------------------------------------------------------------------------*/
FoamFile
{
    version     2.0;
    format      ascii;
    class       volVectorField;
    location    "0.6";
    object      vorticity;
}
// * * * * * * * * * * * * * * * * * * * * * * * * * * * * * * * * * * * * * //

dimensions      [0 0 -1 0 0 0 0];


internalField   nonuniform List<vector> 
19631
(
(-0.02187196913794344 -0.009392329127195828 0.01648570518539132)
(-0.03809925499402869 -0.1466921814290588 -7.804475734964794)
(-0.02675166580906377 -0.004224267589279788 0.002006844819642901)
(5.303911521414966 1.526653133530901 -23.0665021910218)
(-0.5277793490440896 -0.09536871513408773 -0.04777956147993753)
(-0.1298334543706004 -0.07761368085767843 -0.0521943945486566)
(-0.004176107485979551 0.001966441687976179 0.00071344987097247)
(0.6351521393460484 12.11869004898531 -4.128367511125529)
(-0.0542604753014589 -2.643990200166471 -1.946228674940511)
(-0.002259885228749005 0.000918084074816971 -0.0009192593920362793)
(0.2320080327495326 -0.01294600128611206 0.0205187886048836)
(-0.3910718748403638 -0.02018531258841955 -0.05593722487627707)
(-0.6071273263237453 0.3494162413480291 -19.11810670460183)
(0.02426335283004204 -0.1318927668590565 -0.07481388098252954)
(-0.001729379185264452 0.000349944884471786 -0.001342464955682001)
(1.175933752352731 0.7510456688665459 -1.118142723549659)
(0.1353052202193203 -0.1053674452441291 0.2245214986101018)
(-2.738860544816658 10.92326611777356 6.000373359500067)
(1.122753696828339 6.852763589391665 -0.1786253923219008)
(-0.3474878949674318 1.11524217647631 -0.3151910149930071)
(-0.02383637306596134 -0.004030039827878302 0.04101334676348728)
(0.04386219212795971 0.05033555079147856 0.00784441251217006)
(-1.349030777625944 -1.333499861318674 -0.986080403170412)
(0.007964160016914603 0.0005936575183647704 0.03243714827749465)
(0.03892631147988698 0.007358445965593624 0.01266976230263327)
(-0.003972439295699314 -0.002429607847298043 -5.470893827615696)
(-0.1755321910660077 -0.1479653843326462 -0.07759762490633557)
(0.2779016404159333 1.743992175208872 -6.238156609918545)
(0.1229330070240544 0.2599716106946274 0.1917661327191227)
(0.0008334505964862248 -1.856542835641117e-05 -0.002943061209346297)
(-0.04331713248999335 -0.02806796143413594 0.01038297701603707)
(-0.01769410370824567 -0.002954370626278546 -0.01548216368775394)
(1.845258923033998 -5.609636269101888 0.7825305540710601)
(-0.08316846362841085 0.009157448627368239 0.03193154284183075)
(-1.771242961456248 -1.69570593746509 0.07134948539642483)
(0.777928539337236 -0.5756212665268519 -0.7699811480840725)
(-0.002146516920006455 -0.0009714690748844508 -0.00122883919279751)
(0.01157324407341135 0.08414303591642783 -0.1092974248297107)
(-0.5301854147326475 -0.1986358505014061 -0.1005111202165027)
(-0.08862490576985974 0.03112715719017939 0.04983297858068437)
(-1.557217615421658 -2.869928176061164 -7.974363016840778)
(0.03064209305119903 -0.01556870987939069 -0.006670547719901103)
(0.003903055660928681 0.0009169513911510178 2.71808847318309e-05)
(0.04448412034496351 -0.01771588751698613 -0.003998468592798659)
(0.9642112182001791 -4.573008168892792 -0.09718858720663848)
(0.4254908360288587 0.4608758619777036 -0.9567331707095506)
(-0.0009563620362484709 -0.005056246303077508 -0.005879728831031323)
(0.008769345043005637 -0.02335596522529233 -0.0004546251097305304)
(0.02482553769253599 -0.01205317366550927 0.01028327016359359)
(0.04328147936006161 0.001458806131054754 0.04107120618549126)
(0.004488642258938657 0.1107321086608491 -7.214320260539353)
(-0.1141531955770999 0.5483145620348172 -1.03600490611265)
(-0.09901812275746912 -0.007498792460710918 -0.005494775238202784)
(0.9250601515465616 2.849302471056085 -2.184726288441049)
(0.2758004884349247 0.35669136131271 -0.7744939981865613)
(-1.616767938806537 -0.6309737187227225 -1.854369762720919)
(0.02212547870035912 -0.01521725199794086 0.10570194607259)
(0.0294925345523688 0.1251886563391872 0.2441254355108636)
(-1.044251688361908 -5.78588934507293 -1.125254893292819)
(1.168884300909736e-05 -0.0002203414935513753 -0.0009146657066247464)
(0.0007851110166163662 0.0005028549365913319 0.0001935104697380501)
(1.733898574841889 -8.153589698569148 -1.832298787191687)
(1.425314268336261 -1.322500930387012 0.3240839502729571)
(0.01219919716244508 -0.02472781903848887 0.009409367782202808)
(0.004019995780107057 -0.004257312335623258 0.04309941017185825)
(5.710536367812859 -12.09249981585236 3.295414856125511)
(0.02437586411251302 0.04450930023517626 -0.006138700957792877)
(0.0670292284379307 0.03334866194685517 -0.01955650107852331)
(0.1038462659306323 0.009400374305501277 -0.07430004397238159)
(-0.000715371811766045 0.0001195109014100929 -0.002813632842376071)
(8.314267092007641e-05 -0.0002093068637517083 0.001759523618448192)
(2.79103462407882 -12.41683663720823 -14.03637964130916)
(-0.001253994991258366 -0.006943493630553204 0.003479268167195328)
(-0.02727355348217168 -0.007581807274816526 -0.01897914854804408)
(-0.05588547993595937 -0.06475979974224394 0.05199741412826796)
(1.714590682872101 -1.894732076191272 -2.606456873478425)
(-0.05981783300951417 -0.04603561988164715 0.006154489769094825)
(-0.1955216448993031 0.563934009479629 -0.2278633863411567)
(-0.1663044021256448 -0.05380782526460148 0.04517703874255372)
(2.885808437610269 -12.74500993012553 -83.39871087105094)
(-0.016838737991476 0.001755992125244604 0.001778969597812507)
(-0.1414630194467743 0.01666022889759534 -0.03566080279649572)
(0.0705955861784571 -0.2521484517034982 -0.1506999435348483)
(0.5733752667765004 -0.4742421346628756 -1.151212191093558)
(-1.19207297902368 17.60329152627082 -7.225129770339854)
(4.057467319301519 -49.24648033285086 5.185304427359263)
(-0.007394081024717855 -0.07840833416984667 0.04946293086591906)
(0.1987511168544283 -1.560296226129529 -0.574972663198276)
(0.4959369359315217 11.45454472998507 30.04770068418905)
(-0.003029786863490327 -0.0119706973863544 -0.02459758607130287)
(0.2127597420881076 -1.825873026854601 0.4527668151383542)
(-0.06554102995154448 -0.03011474633209305 -0.05220788757527917)
(-0.01938706918177981 -0.03199526739575148 -0.04658008012445445)
(0.03127414368905503 0.006353391208221298 0.0376542574913518)
(0.1172777380849577 0.4996204268742587 -0.2349707210668361)
(-8.774566979635328 23.28354292214446 -1.573621227708193)
(0.01061826150085927 -0.0003020173270803965 0.003176253566292187)
(0.9614567578152022 -0.8611932213771127 -27.92355171245087)
(0.03057701092702433 -0.07864596527882378 -0.1009732586102342)
(-0.06283313533530448 0.03354467805363591 0.007506304739631403)
(0.05269962391909062 -0.004424602068047595 -0.09712107527737832)
(-1.5963759708496 11.71917725018069 3.799880798620509)
(-1.056472665930298 5.41087054152323 -4.169485861699568)
(-0.02387784207806502 0.02217704607933459 -0.02408512621535791)
(0.438355386762163 -9.37373142631937 -0.5381262830312126)
(-0.3479963422988335 1.311119885294439 -1.423713505133588)
(-4.009563147846734 11.28004547903846 -1.980631374613433)
(0.1330725693297601 0.04166159566913698 0.02666751160483257)
(0.02250360303921245 0.03322546887509581 0.0713621583016958)
(-0.9996763034558489 -6.134594378443094 -2.494974022010994)
(0.428781607628928 -0.005173924257594421 0.2197133866263388)
(0.2967852626107389 -5.822643340465991 4.310669423152255)
(-0.5782801759981904 -0.03237203482741145 -0.09542230060665757)
(-1.001774758912491 -0.9574311106759178 -1.22076977431837)
(0.03328276879403024 -0.01629717108611084 -0.01199830134656019)
(-0.1859802372619025 1.072635229666627 -0.7158499728172554)
(0.8006941558851077 8.386471017748701 0.09730603487222989)
(-0.03477264940353963 0.0306242262332778 0.03589711787615989)
(0.4404700080216301 4.119842108748148 -1.286027247468509)
(0.01058334336915724 -0.01686663416438537 -0.006454092745886753)
(-0.03966738332197763 -0.00459696864236942 0.01222595065187434)
(0.009158000404974324 0.07690738132448122 0.0656999772294776)
(-0.0003619005230201811 0.02248668880562956 0.0569568373367809)
(0.1016237694458675 -0.7694568343172927 -3.884756201031605)
(0.1686484874279931 0.03910574811767482 -0.03323763181143162)
(0.01017994397660137 0.03065146803616881 0.001152200736588425)
(-0.4196227338391862 3.018667388380297 1.660268207937948)
(-0.00102436737813634 -0.02096243140545307 0.04031959694488731)
(-0.002470584619461492 0.0009394617265951648 0.002953964959979509)
(3.117702180738316 -3.498677483142655 -1.160304127581847)
(0.0008834181563205016 0.002463673394960979 -0.0017484608456535)
(-0.1904442710811965 0.2248591726649231 -0.06704122451504935)
(0.3094449434528865 0.3301955716695236 -0.08240641932597226)
(0.5648932360482322 0.6356366639523271 -3.265256373570944)
(-0.1053855815923996 -0.207241677209779 -0.0678864284432969)
(-7.439788701958087 15.85002435125013 10.03875164392494)
(1.997817812431814 3.37296412724932 -2.173154184159451)
(0.2107224380111424 0.2661702539157445 -0.08280898260653546)
(-3.220972071661674 3.99446567074199 -43.9490292559106)
(0.5164937025693828 -0.09415826977302993 0.1435760208619684)
(0.2147822749746548 1.23709765018507 -1.420090325880817)
(-4.578490291128404 3.888998981136165 -5.167605882296784)
(-0.3781341289810236 -0.6158936796159981 -1.16827037279295)
(0.002337874931865484 -0.009030385134382139 0.002214672711067105)
(0.1146687536393552 0.3240459621322107 0.2964485081890783)
(1.733968700655151 0.3109018621819674 -4.60040088848102)
(0.01113543109220041 -0.02795311124183214 -0.01581537351599896)
(-0.003847236236120322 0.001102715421205254 -0.002534054474224548)
(0.005404499189359745 0.004249782695067079 -0.002702280701445067)
(0.6879555637180692 7.060727468731224 -5.121978150518721)
(-0.02816375580458758 -0.02881516102593677 -0.02941350011480828)
(-0.004413889699338425 -0.009871519078754378 -0.04357539690980264)
(-0.1044298295402674 0.02194114801439245 -0.002886377113557402)
(-0.03800005068599625 -0.01336585937395362 0.01773234883856207)
(0.05800718542669497 0.03887340377047864 0.02987394559634367)
(-0.008811507638141274 -0.02345406472762893 -0.002432917960875539)
(-0.001187257342982458 -0.001308402883538716 0.004211615105868343)
(-0.205675759599853 -0.3216083376993901 -0.2571632314564587)
(-0.6476755622364275 41.23908140347801 6.004777752005992)
(0.008767634768618315 0.1871866948988221 -8.916590947149242)
(-0.0211268869243048 -0.01062095997013642 0.01235158034111002)
(-0.001302875477024196 -0.001084461702537775 0.001223416318999104)
(0.01373894825410702 -0.008134561296794369 -0.02637958612986708)
(-0.01366480653331971 -0.02288280001682944 0.00958454441740746)
(-0.003711319994059542 0.002234579324966865 -5.554820077780676)
(0.001881908510105497 0.0004664537333385821 -4.913558704353354)
(-6.654448331096935e-05 0.03249481796823412 0.02697684365363159)
(-0.0152992048969279 0.004817512278421818 -0.004516584394039844)
(-2.208078911095023 -6.750390014346681 6.604855994115065)
(0.04472553092679008 -0.02192932757717167 -0.05951298488317487)
(-0.001767083092623446 -0.0559539838934558 0.08126002506770522)
(0.03360269217866647 0.1451385762041179 0.02933015059213502)
(0.04050607527219792 -0.008043729019839112 0.02498437952258437)
(-0.08629219918600851 -0.03050299106885443 -0.03121689924751849)
(-0.0445266601583609 0.00181462563746481 0.06027935508513661)
(0.2701460289002663 -0.008254906623390158 -0.106752351190647)
(0.003262918333035018 -0.00241176801718853 -0.006430446410960855)
(-0.05651011982534222 0.1317819065880638 0.005445744247717212)
(-0.1805185157359336 0.1093330075692986 0.03212416282057488)
(-0.2973861295525134 0.6190855925971611 -2.260283760696804)
(-0.05792872393293248 -0.05302936039236164 -0.02817300139596548)
(-0.003338460801888518 -0.0002790395964112069 0.001242731346903932)
(-0.001352312624002992 0.0008588788757224104 0.0007030370942709461)
(0.005915879343704209 0.0316290269991465 -5.665326629102587)
(-0.0002829565847793252 0.001089713959394003 -0.001022829489700194)
(-0.004544020082540672 0.005461065068976154 -0.02232203747584591)
(0.01174520775402906 -0.03236477471143513 -0.05397347529088273)
(-0.04149873210965444 0.03220375739206988 0.02085325003602701)
(-0.16728581565064 -0.06365620046715684 -0.07373933726121124)
(0.02887058196462538 -0.0006790997524174565 -0.02937702078992736)
(-0.03502349302671803 -0.04768134206299652 -0.03089831208265562)
(0.01515138813794398 0.008612536582762382 0.01885615552865121)
(-1.212111213648212 -1.027817385169288 1.271866702031483)
(-0.0066595184311368 -0.006027042243498718 0.002086737663552191)
(-0.06947448341166829 -0.0386280932073147 0.05003133020983345)
(-4.250394876306655 -0.7332562337363533 -0.9422311023787038)
(0.0002871122291704664 -0.003217308748858148 0.009439115835503994)
(0.00505223335165679 -0.01785197012957122 -0.00132617364239836)
(-0.01772841134667841 -0.03839013642505529 -0.03761839610960498)
(-0.02147820285456484 -0.006995377430445471 -0.009003501139745667)
(0.01753938532709867 -0.01134090830729324 0.004490145263608736)
(0.03210442714042896 0.01732605435872558 -0.01113761362719118)
(0.03855194389713497 -0.0237008643088923 -0.002012227476809424)
(0.02237501606234453 -0.01145024358581345 -0.01509924397925657)
(0.007105069348777004 -0.003942589747334267 -0.01485682116831955)
(0.1357047692927092 -0.01150725730993913 -0.04316533962589129)
(-0.007974360391060097 0.00384374197170761 -0.02869133272502001)
(0.005508599367319091 -0.0908837734378924 0.04918600335667962)
(-0.003849818290011978 0.01020561605388107 -4.874670080149981)
(-0.04002096328436958 -0.1008136392987575 0.04495378707562397)
(-0.006703634235451615 -0.002123418193500803 0.01303011095669375)
(-0.3940693072952368 0.03598032352603452 -0.07191619025581468)
(4.293236186813076 4.526230735649007 -6.482212918764954)
(5.325508830367784e-05 -0.0001373980210299867 -0.0005911723311389501)
(-0.1733749996284057 -0.079781193642387 -0.01551082797914547)
(11.10726864348532 -2.087494040089577 1.592605212191947)
(0.001616339729713171 0.00298682108109822 0.001152613885681957)
(0.002021694121734248 -0.002575630395424945 0.002568345808481659)
(-0.0002596240131529839 -4.634404973555598e-05 0.002511272595203736)
(-1.20001730216464 3.517934976306485 -3.684220385277253)
(0.0119178227280601 0.004717455873030479 -0.03577069532949233)
(-0.04516481376248567 -0.07789579355793515 -0.1003793462157408)
(0.003654902748367058 0.008061249303973296 -0.002850144512475484)
(-0.001641833347149515 -0.0003962847523246649 0.0006883388741170675)
(0.003191371431463919 0.001933392675435805 0.001431646093635761)
(-0.05657583255644838 -0.01595298681921295 -0.04093945651001631)
(-0.067487503886625 0.01470994885153289 -0.02520729255378423)
(0.006174894883182985 -0.0201768519855935 -0.008618536111674246)
(4.659541684880763 9.268937067040277 14.51393382660445)
(0.166701630820687 -4.744650785873205 6.03564482103702)
(-0.01134451274244986 -0.007251633232677173 0.01066257994595237)
(-1.762145760729532 -0.8929279350496507 5.37021207096282)
(-0.7501542332841042 1.053712752670914 1.98907967236187)
(1.28158085345734 9.631556952268994 -1.296704562259288)
(5.554177484505457 -2.943105714328923 -4.055098503908458)
(-0.7195313420722114 0.202264444799958 -1.204626851050621)
(2.173224267037465 -3.265609168516004 -2.014935644442376)
(1.06693576530378 -0.1115771847690065 -3.726123396237775)
(-0.05237283333487172 0.005871746346035623 -0.04950563213606374)
(0.1211702969998627 -4.53554426906057 -0.325673418317403)
(0.006007573367656062 0.006024635950379172 0.00834871079853752)
(-0.06606460912777862 0.04651136916867721 0.02231177092246087)
(0.004327161297153895 -0.0004764005973035329 -0.02678855067952443)
(0.006749057809515267 -0.006039348847666947 -0.00562120039978384)
(0.003653922194261162 0.002072754452471841 0.00328348431928148)
(-0.03756493510003835 -0.07036231762642615 -5.037139987001669)
(0.001481309393458768 -0.01740883902836762 -4.869065882550395)
(-0.001367547747845842 -0.0007702703635955793 -0.004257326988207379)
(0.2368097597531702 0.5451406900909462 0.5891524227506031)
(-0.001227964357801165 0.005492372826821577 0.003345281761383283)
(0.1655836987416117 -1.734793666216218 0.02709594760533458)
(1.040694857965616 6.022893213202403 1.711937254076107)
(-0.1277832547704393 0.05617174958088521 0.12629703654614)
(0.09389743193929001 -0.3228154601456192 0.5512914456394022)
(0.006833408113555229 -0.009777423799428456 -7.932105945318749)
(0.357909873454378 -0.3572147182404968 -0.1250563506566708)
(0.3251536723990255 -0.4266624615775181 -0.231636588024707)
(-0.7086755890252883 -43.97125100471364 -0.7690973087301878)
(1.241767856778135 -43.03827093491971 -2.426032828669493)
(0.293611263070455 -0.07611723102813742 -0.1209488657260521)
(0.04238582397709892 0.001146596607629259 0.03330915115620435)
(0.8292477592930481 0.3319496327686132 0.2404569135649068)
(-0.02662757213269056 -0.7462809269446781 -0.675536973843624)
(-0.4461430448254039 -0.1607365363632613 0.05860649471042585)
(0.003976822302474823 -0.02344863220218625 0.01934893667973658)
(-0.02165192750292907 -0.009880707827389253 0.02806431684600079)
(0.1161836750114072 -0.07687949891510575 0.02580153009875445)
(0.08830819919761485 -0.1075672536715328 0.09549062186188674)
(-1.108768065976817 -31.0913532395602 2.484806387247001)
(-2.127620959081858 0.2325892617500007 -35.21110193135875)
(2.379870695901283 -7.089041554833442 -4.881745471091008)
(0.05694830356988816 0.1452664435947821 0.004820993237615756)
(-0.5727036799263083 -3.072342336910442 -2.42046471537921)
(0.000898354828636983 -0.00154126428854263 -0.003371656939970568)
(0.2564516520684264 6.997315426955003 -2.509681770396916)
(-5.215443343781132 -54.97509462806102 -0.7484290105562361)
(-0.01537957346280808 0.006628403145822329 -0.01642915073353764)
(0.01495264954822209 0.03838463632636063 -7.627453360095182)
(0.01079352015185664 5.3795889489038 0.2178117671968326)
(-0.001643156725641951 0.002431209748383084 -0.006516289274517705)
(1.295769574143397 -0.009040801185500213 -0.3343757670936429)
(-1.403044252904092 -4.14088574053838 1.674455017266544)
(-0.3422929489553175 0.2794743934984872 0.1221930745928249)
(2.229330057069109 3.733109045283285 -46.99043478473421)
(-1.325697405021471 -6.776888481236076 -1.336153811235989)
(-7.251823065613706 -18.04273315752306 -3.64068645722756)
(-1.586524806045047 -12.20856023922554 -48.96336586437717)
(4.911645942667461 49.917845179605 -3.560963864884481)
(0.04655786804471146 0.0938693278645376 0.01317776174956988)
(0.909068738718795 4.745038734561977 -0.9650796797335811)
(-0.1850252510743244 0.01524524068185493 0.006842802732325064)
(-0.02206497791193416 0.003947010428938261 0.01327130307980746)
(-1.892929322105268 0.1810839486015719 0.4516548727366342)
(1.081628113978263 -4.036663071919466 -47.06493818544384)
(-0.350522802467307 0.2676146143214828 -0.3284721993334215)
(0.0001914764365091509 0.0001856541195933301 0.0002713986310878505)
(-1.021200123531346 0.6162531939090556 -0.5908543431383875)
(-1.201102079762063 -0.3012263676236295 -30.71155374407067)
(0.1167744621599561 -0.002832074302315784 0.01183215517858284)
(0.06290766218089953 0.685479671690908 -0.3352413206921637)
(-0.08111284253601048 0.7611475757145072 -0.5570526646736859)
(0.6115040037641931 -2.370925910058994 -2.988002854448213)
(-0.2811567838307729 -0.1299802988760433 0.02809804582527922)
(-0.004182561649287396 -0.04001075102281697 -5.653002440246913)
(-0.7538278562538325 -0.07242000360649128 -0.8238854570201672)
(-0.0164625815046298 -0.01081072644322555 0.00266232269454441)
(-0.4913147357845208 -1.558835320363761 1.13347296144072)
(-0.1524680624344218 -0.4137691026951253 -0.08925833501438912)
(-0.002852464405840558 -0.08769227940596241 -0.06263908899175562)
(-1.809829684997295 0.6100742871895491 0.3062519795850261)
(-0.07739659518164264 -0.3759236336491362 -0.2928552011357037)
(-0.000898552310646639 0.0004960646204827607 -0.001490884785466208)
(0.001052503391153959 -0.001053407611877837 -0.001007205083494934)
(0.01954218565146176 -0.02691678268273153 -0.04358542822137322)
(-0.01865742808609249 0.02503298955687269 -0.4110455336266425)
(1.995432188027183 -9.138268020479028 -2.500433270516177)
(-0.5907830086322194 -9.906258417770403 0.4463269391726237)
(-1.317255783112246 1.191143473362653 0.525549580669906)
(-0.2568515679368671 0.1429847701146026 0.4577099346448184)
(-0.01085505255319303 -0.0002466178605721391 -0.001778154298066944)
(-0.09441719004561941 0.07448170726772865 -0.007960488430562747)
(-0.1691469422106858 0.4629080818488643 0.01251549062873794)
(-0.1226574349406802 -1.01674596654988 0.05601910513649061)
(-0.1029184825582258 -0.03367008421205319 -0.04379227663803081)
(-0.03226108051927692 0.02267333770033766 0.03477060870122532)
(-0.02806964641363174 0.01138312271089836 -0.01998787327348958)
(-0.03533584489613822 -0.8808858068275509 -18.99810063033256)
(-0.0082343595604061 0.002134041579305515 0.004956120891138454)
(-0.04602591083720904 0.06361686990965501 0.04096527017164125)
(-0.003250658941992623 -0.0004820369797684921 0.0003568427121351746)
(-5.525476473713784 -1.028755529122677 -5.979948397935805)
(-0.4716571309301628 -6.020602683373276 1.759266251086458)
(-0.2229732370328188 -1.143613999979829 0.9661450515516448)
(-0.3577268088502894 0.3307025414837699 -0.3580441452184334)
(0.01296626663418328 -0.01502221389774609 0.1177455797901372)
(-2.05810469823082 -1.916338840214347 -1.341334810337364)
(-0.005732279564996154 0.01017242602563713 0.003434625101272584)
(-0.5622907730386655 1.219296627322614 -1.043910153102535)
(0.1052811299519032 -1.637405681984208 -2.342888925017917)
(-0.0002040300588981356 -0.004757130048903322 -0.03384670940310047)
(1.802347865679732 -0.6561099004181559 -47.24419955185945)
(0.001659944419598011 -0.01695603768363645 -0.02695940675684249)
(0.003143571082774596 0.0006339345130735288 -0.001190524468865873)
(1.56405191478008 -0.1422547110053056 -0.04556595768959254)
(-1.12474219550432 -3.905650353528163 -2.242817017100441)
(0.006535421251115361 -0.01595742047429429 -0.001510862809735721)
(0.2260150476366015 4.592878968552919 2.980561382096955)
(-0.007469178118249788 -0.0426762121205699 -0.03978687723116334)
(0.0220872017916692 0.01367913514193741 -0.002100174361763334)
(-0.003027471947027921 -0.008829523716450249 -0.003406936671585269)
(-0.0002034363865818824 0.01332141521082515 0.01356176213620107)
(-0.001406926745666903 -0.0004811670982033061 0.00031368517357945)
(-6.564022719489039 -3.208202178539584 -11.61890300394696)
(0.09258116472914449 -0.6995583538386148 -0.1897502817963895)
(-0.02430098254081827 0.02023226071096108 -0.008094124858241738)
(-1.231315558300552 1.381715902122794 3.75656128759698)
(-0.01978021249330903 0.05248260197731765 0.01701784484950208)
(-0.4171912269772489 0.1772445672970842 -0.1272292270034826)
(0.6331364231488408 -0.1038903493542441 -19.80780349423048)
(0.1153131646540236 1.6463223767411 -0.2208521127514834)
(-1.893605538869038 3.456824617145345 -0.7345172745361173)
(-2.972214751459323 -4.817414140094544 -0.7730333565331937)
(0.6552740955920214 7.07544088009926 3.755059049501255)
(0.1163477765316678 1.929490684227592 -2.020131339812754)
(0.4739103242456267 0.1776787656971367 0.3867531897939069)
(4.010137068398818 -5.303654297376927 -5.870385699799693)
(-0.04071660115955594 0.01125332106268162 -0.008269928753457403)
(-0.04324481214957208 -0.04595531984762204 0.01172684450324625)
(-0.632368555740676 -6.272060058887787 0.4133085661012827)
(0.1876428196140704 0.1958927651921474 0.06298281685972604)
(-0.1497497143875946 -0.04067331376714117 -0.09287417878679921)
(0.4238310345003188 -0.130146884975317 -0.2004427085500199)
(0.1281085630622824 0.8648467388517107 -0.3196704803647501)
(0.003804914435757596 0.002628018077025946 0.00319992429294299)
(-1.78478027998118 -1.638318893984342 0.9110647790219992)
(-0.001864378880843275 0.006630023321901791 0.003072246662971784)
(0.1157514889397496 0.03235027339413032 0.2747845312896967)
(-5.68367625023681e-05 0.001502520202924736 -0.002394998838029507)
(0.3150258481827635 -0.04884074210912073 -17.73850797630837)
(-0.2267770058794586 -0.1611041911505915 1.526676470476456)
(1.715122849426639 39.97547454604415 6.691775785545754)
(-0.1160603481712767 -0.08805534078558369 -0.09051921686954531)
(0.6160728171567282 -10.07965421557662 -4.186170289776622)
(0.1544200183460692 0.07848808203777043 0.191803111915314)
(1.014456863858604 -0.2611184497103275 -0.5436590920508759)
(0.5485462758038854 1.334062608744721 -0.007573392769229637)
(-0.7058215638935674 3.542758716877309 8.59713646650115)
(-0.1116273440710011 2.370767975176707 -30.40752548321446)
(-0.1708728938881265 0.1866212668353997 0.2867807758403085)
(-0.002773736907668792 0.01473282306532324 -0.007377652344295361)
(-0.0397823080201857 -0.01669548332827153 -0.002657861042391786)
(-0.1403670209886321 -0.2249978516943223 0.1729265793668611)
(-0.00889670755471973 -0.001697063319351179 -0.0180627619261144)
(0.0450431909418474 0.02298212549767107 0.004931052092522511)
(0.01207619584183357 -0.043387735381549 -5.517043908762933)
(-0.0009365643424247678 0.003138575251183921 -0.002530598752464353)
(0.07876460712690651 0.03981519191994545 0.02626392869790978)
(0.4584876996826439 -0.1224294900624044 -27.45635809914032)
(-0.002665414351543023 -0.005742449821488838 0.007203286374741888)
(0.3105420648829084 -0.09119962092779246 -0.07278831352192469)
(0.233280518705938 -0.1694244162507818 0.1939442252293457)
(-0.04254527279980825 -0.03973088157404067 0.01410339055274533)
(4.322663226535495 0.1763427939753437 3.126872399353763)
(0.02870482114417376 0.1020439134182518 0.1326826306154014)
(-0.8698697978229608 0.05480004873279015 -0.8698784658409955)
(-0.05155999946262679 0.04691309142398031 0.02127981304076761)
(0.1384269794570474 0.2046806123234521 0.1539175081561317)
(0.04025394853869552 -0.002269965255848216 -0.03687862444922539)
(0.2984288897131944 0.1715608729448243 0.01368027335964574)
(0.00233642231084209 -0.001148914408740505 0.001258201736022062)
(-0.001490816475542809 0.003057844727968292 -0.004190035846989977)
(0.4448560382367956 -0.08784951316395682 0.2978114408085937)
(-0.0007465004297329057 0.0002122346281974994 0.0007799536998261893)
(-0.1023517882113785 0.008389148013688195 0.1333462227316352)
(-0.0006967044897906406 0.000297945112834555 -7.2718033921354e-05)
(0.1298972654194172 -0.05870678906824189 0.05616948156859589)
(-6.410642011170891 60.80860260098314 -9.559722351892013)
(0.1252590101383935 -0.1693853099523893 -0.9917605868579646)
(-0.0006080920085393942 0.002663390441755879 0.001534640205902484)
(0.02519226832279015 0.006175929558185324 -0.006140533106214185)
(-9.73821513428155 64.78807385220426 13.39299966146875)
(-0.04513194154220337 -0.02481389056182895 0.08334152747721967)
(-0.007701578192615008 0.02876904431206606 -0.01623914416022292)
(0.2362982600333199 0.0936918933183431 0.2006042262188578)
(-0.003516569289022653 -0.007233536199735894 -4.998050178740097)
(-0.2757112077710286 0.07384978083265969 -0.07120302596514966)
(-2.617992445670754 -1.787073883062845 6.200598565585995)
(0.9303576844703323 0.217582996853275 0.07333774400373982)
(0.9804447243330363 -3.357189102599395 -0.3639198074455338)
(-0.001165886107010977 -0.006602180203914071 -4.803923748706564)
(-0.003265465117445408 -0.01270048002070377 -0.01316503325251681)
(2.908195409201754 65.98212706377758 5.540506384450732)
(-1.717814921525083 58.38571057068075 -6.122433427534056)
(-0.001008859320557808 -0.01555071875238224 -5.013382309493895)
(0.06518018809375314 7.813070295651273 6.455866665155584)
(0.003362721223770667 -0.002081257986086402 0.009957223895730912)
(0.3788462779705338 -0.09319732904355194 -0.4923531126730361)
(-0.05362970077449238 -0.06803633250945229 0.1045454185295528)
(5.763688379282921e-05 1.608641324683406e-05 0.0002158296286562342)
(0.0831963291995636 -35.23216848618302 -0.2664562035587219)
(0.1536848741667258 -0.1035755387084327 0.1005738128956786)
(-3.350188855083811 -65.05393814505749 -4.573742793444681)
(0.05279405285867422 -0.1001662860651738 0.04371949593688557)
(0.1118618646962719 -0.750633946032882 0.7642330319522278)
(-0.06044603224033124 -0.55984439322116 0.1691132361315488)
(-0.1569679906797172 0.188003471195733 -0.2265894772615273)
(4.065073993621525 35.44186909813877 0.9874362044383045)
(0.01076544644786175 -1.542570319531789 -0.6080543986411693)
(0.04931360241418775 0.7114684427801987 0.5101348902735919)
(-0.02261039202028145 0.4366783412725136 -0.09976481674302949)
(-0.1819132146446736 0.03860570466561207 0.09867312171485615)
(0.02567489137934057 -0.09632603424184971 -0.3877217364269365)
(0.007254285121597316 0.01682734810571897 0.01576574311841357)
(-0.3981492425818161 -0.1674966765225508 -25.12181446009414)
(0.1627665538652358 -0.07826904998608962 -0.03943133491184574)
(0.002039073443481072 -0.001203087041470283 0.0003413759267467471)
(0.02529880386340338 -0.001290645085673793 0.006981901326795344)
(0.1540345363506365 -0.03221444242247961 -0.0006103798474594163)
(-1.098004583181361 -0.9231393513602539 -2.816843951595727)
(0.02087113716650239 -0.009393983937106082 -0.007880634605136222)
(0.2607765029814382 0.009611344376785055 -0.1846011008513319)
(0.8073416327691592 16.28554836218947 -6.412483743067757)
(2.092854421699164 6.343120307444271 0.3123171003047275)
(0.002209702992258428 -0.001158244386349845 0.001611167458799599)
(-0.03579830206024759 0.1717451815726357 -0.001188420865411807)
(-0.1520071343496815 -0.7923169496859019 -0.9493858287321195)
(0.7521981958391588 -0.2037269222462097 0.01907792057920388)
(1.418212134546964 0.2711540632940497 -0.8281203417191241)
(0.1600574762139022 -0.6304526105150037 -0.9595347690852539)