/*--------------------------------*- C++ -*----------------------------------*\
| =========                 |                                                 |
| \\      /  F ield         | OpenFOAM: The Open Source CFD Toolbox           |
|  \\    /   O peration     | Version:  v1906                                 |
|   \\  /    A nd           | Web:      www.OpenFOAM.com                      |
|    \\/     M anipulation  |                                                 |
\*---------------------------------------------------------------------------*/
FoamFile
{
    version     2.0;
    format      ascii;
    class       surfaceScalarField;
    location    "0.3";
    object      phi;
}
// * * * * * * * * * * * * * * * * * * * * * * * * * * * * * * * * * * * * * //

dimensions      [0 3 -1 0 0 0 0];
oriented        oriented;


internalField   nonuniform List<scalar> 
37380
(
-0.3777584320696744
1.004563271226098
-2.772015635469963
2.145210796310872
-5.162807614965996
0.806673482192
52.37007752829885
-48.01394339552446
-18.28074127428758
21.92028693492285
-22.79516279412575
19.15561713348658
16.7989492966543
18.25870276722575
-18.54206033502259
-16.51559172885754
-5.078873754236286
16.72708041761773
2.823812422068314
-14.47201908545029
9.393545457621991
28.05419335876591
-20.94978842242609
-16.49795039396378
-10.18944195682782
-24.86010615113751
44.44309356558652
6.967383834905774
-2.974662493731992
7.605776843453683
-11.59849818462199
9.646322769415098
0.436019072149385
-7.435247483361951
-2.647094358205297
-8.908140765992485
7.608158150654115
-3.175675433922474
4.475658049276543
-7.542756540953104
-7.297927091902478
14.8403541283222
44.35009354747292
-10.63008161772757
-22.33930459666716
-11.3807073330793
0.8350879498171134
4.852124099806677
6.941794996685658
-24.12833158880483
12.3344124923123
-14.94157762486482
23.74728181370097
-3.417479147072384
-5.388225041762208
-1.497241847595759
-0.9659298887686484
20.45667450885749
-17.99350277250791
4.407513528808344
-0.01912171208104115
-19.32996944159202
21.12372052731899
13.41255600336127
-10.78899471697972
-14.15887361281596
-9.921075680969738
-1.582454250827578
25.66240354461134
-17.94782618029743
2.318138957602843
0.3127942854515811
15.31689293725136
-0.07307229578550495
13.58888048264366
-6.548424351945759
7.276307603205286
2.773390278891549
2.516287509132634
-12.56598539118737
13.5811372131167
-1.526709307792723
8.27631707182883
16.64692155195372
-3.799518096465906
-8.327960423621734
15.13413962008245
11.09757788345204
-17.90375707989417
-6.217861404268134
-2.196889366964218
8.850769843390939
-9.728854752919016
5.605026495499031
-6.399100145486775
10.52292840293438
-3.235690585823481
-15.90409441009098
0.7818150628745136
18.35796993304226
-5.093837677883285
-16.72887074073685
6.427921045677875
15.39478737294147
13.99433761641628
19.53520208032758
-0.9028004360846175
-32.62673926065908
-10.15159453116711
7.73820215813775
3.93472811600377
-1.521335742975004
20.8141219458185
0.3745473683372389
-24.42435989997914
-17.58649399320001
-25.34626896034363
19.07961649221949
23.85314646131696
-14.33439962223154
15.42366450553229
19.72485706251646
8.562260554185817
-8.747773275545038
12.97317794859958
-12.78766522724188
-8.058686975604527
10.61032854967566
-12.91124534083785
10.35960376676546
-23.75019037103408
7.415884091914998
-9.022380297597728
25.35668657668669
9.290583417637285
8.778155101962954
-18.06894210771694
4.579111721215569
2.628921202035386
-10.18269541697505
9.074138346083704
-7.309325610201974
7.525770681755321
-27.40179713920087
1.956329051148077
24.24377842498013
1.201689663075969
1.460475231249054
1.292501409081344
16.38522547141537
-12.80523010137669
-3.129013487840213
-0.4509818821989943
9.1090096655499
-23.36294039949531
14.85960179415749
-0.6056710602120409
9.209236519445422
-11.83646928843109
28.13111062238023
-25.50387785339569
19.30017230285386
-8.68990236808356
-8.235657754696183
-2.374612180082516
18.87636228036724
-18.96331101694424
-0.8074663293397012
0.8944150659108954
4.826876259148285
6.974020643191979
8.359947277379037
9.450999877065264
-16.6915904516173
-1.052418418429755
8.293008992978285
-1.892288223982648
29.90074534295646
-2.918525266539943
-25.08993185243619
-15.57750027526292
-9.504415083259193
10.26420407033804
14.81771128818278
-0.1412728668744196
-12.27625692670466
12.41751260711435
27.86146432213236
3.219216143020166
-10.75789618446324
-20.32278428068959
12.31322277681885
-6.31467517441516
-4.658311426657939
-1.340236175747985
37.09825700745474
-25.55135827937289
-34.5266391073819
22.9797403792938
0.1590946888411028
-28.50878344544618
-1.058854009821026
29.408542766422
-16.11616423645192
13.55470619473648
6.850886690780833
-4.289428649054721
13.93658820742032
0.3509043102550551
-17.23912848410776
2.951635966422531
-22.20814949779926
15.41805979883268
9.945313441120044
-3.155223742156525
22.83150311813249
-22.06639226921443
-15.37960592317087
14.614495074252
0.3895437574989855
6.645672722185185
-23.83785596219943
16.80263948251409
6.200533040820773
-8.321884314608992
-16.82190147533474
18.94325274912216
-22.63985535837579
2.169579815928812
20.07253234010587
0.3977432023433073
-6.764419617127153
-11.4938014775367
25.6420914760626
-7.383870381399265
-28.9734641904764
-17.01216173183042
16.95000485918331
29.0356210631202
-21.77886856418826
7.071936120756205
0.5978978403689289
14.10903460306252
13.88293184091655
-21.00112947586114
-20.28359950424974
-11.08883195679769
16.29835815226732
-9.212811296710985
4.003285101241058
13.57954743562146
-18.67482712189449
14.90722189922476
-9.811942212955245
-21.87531582511195
30.75319591019252
-24.94534096952533
16.06746088444
23.177278327246
7.011565577668568
-27.70164525169847
-2.487198653215969
-16.79187221288405
-3.711175284980814
12.22459081499103
8.278456682872285
-1.325824644671719
5.211891730548156
6.167352739490142
-7.806102422537774
-0.09906179359476949
13.08109751791559
-27.28026417321232
14.29822844888405
6.971701463376562
-16.31054747169932
18.82870810325028
-17.14637272198201
26.87619792524424
-9.730020268746177
-11.31483574340744
-10.44220813804181
21.75558195323821
24.59200909506817
-10.46557750409524
-0.2434997500553374
13.54778775766949
11.33556556145588
2.622717392587755
-27.50607071171531
-20.93107581509185
8.151185882972181
6.576787948409362
6.203101983678979
4.42671687701101
4.842963910677508
14.41752957782725
-23.68721036551438
-7.855349090116989
-12.41348923248128
2.353736893784977
17.91510142879494
10.46068646402497
0.7819939678119047
-15.84612207835747
4.603441646522723
-33.11752629598011
-1.726010342641715
8.336851660464797
26.50668497817309
-24.37887805087592
3.873635690301657
-12.61228393540285
-16.20795112001762
-1.053926855457263
30.44157897115272
-13.17970099567852
-15.44064723248514
15.93549913294232
-0.4951442128803855
-4.146915727940991
-12.65201144635824
18.44800439304461
15.51876251501522
-3.137775113348277
-1.416180224445189
-10.96480717721731
-6.603468499358176
5.867054363657638
-0.9755903046191413
-4.919360290823535
-0.7085179039079513
5.887431069236523
-0.2123366597628961
-14.55792542847004
15.03496108616874
-12.69912501882769
12.22208936112821
-0.8061282268618909
-7.704259166138867
6.228405702034394
-11.03473198336335
-19.34530803349544
-3.463074878416042
6.600431791893683
-14.25454090789699
-0.3035722767506121
-3.368584484828691
7.962072259721768
13.08966393700259
-17.68315171188168
-0.4341905848269508
18.54399240165285
-18.1098917959465
18.9541685624104
13.24503806690309
-21.825714442407
-10.37349218690765
-38.07242027289738
0.06892169612285259
20.93350125812036
17.06999731865278
4.40165830540755
-30.71923375226358
-1.864419596720508
28.18199504357489
29.20858282813938
-25.17524898589183
0.3683244631590988
-0.08175936337785757
-14.36125736983201
-10.76002874073027
25.20304547392598
-13.39207791461233
-2.598374538121526
18.28301750473991
-2.292565052006268
-26.79562344876899
23.42746218416537
-30.65336981858169
34.02153108318203
11.85457783031084
-5.760297386603501
21.20116393079345
-18.59078662514586
-7.694995768118784
-7.459271764174582
15.15398731343876
11.23776360398713
-13.51084385827945
13.95714906621032
-11.68406881191958
-20.17357391072343
11.55886809428085
5.85285274887894
2.761853067572551
-4.959035157061753
20.56175732124301
3.2598932405011
-18.86261540468008
-17.00110685762753
12.539645312004
-5.138134391059085
9.599595936699071
-9.907686832225069
0.7876706047031534
-3.096086283525489
1.036955890373407
0.9927017325579489
-7.250392152278943
5.220734529347452
2.467175024759281
-5.913575687641114
-13.23074083668348
-17.67403494549886
29.31909347694669
-10.16969254743576
-1.47536598401493
7.061993931881052
1.198842895742071
-7.223880937243342
-19.53126014199054
-12.22369470617922
16.90126355463728
14.85369129353039
-1.719698795276685
8.156028246929296
17.77580606428871
-37.31332544392792
11.38149113270925
4.976743967536879
-3.325562705461838
-9.16559469880022
0.30316074140972
6.808355268517365
15.0619005841533
-14.13688070283379
-7.733375149834182
1.558148080989185
-7.558530101474383
-15.79820125686138
6.971316487321599
15.45572000539036
-6.628835235854916
23.13574184745852
2.756989547522253
-18.85620020705715
-7.036531187924895
-6.834061343000818
-0.5683933093420865
-13.52862116276722
10.77603933267686
0.7925733695018443
-5.738952594067523
-5.829660108104385
19.00361224137315
-18.38808768617378
23.11428316421881
-23.72980771941893
-6.077941445805248
-12.15834327706701
1.552770322089002
16.68351440077766
-0.2506768133097318
-13.09390457904449
13.34452694355559
17.2851400175148
12.65852708533347
-6.989197214962477
-22.95446988785209
13.11991561001884
-1.797730823125905
21.6770541474809
-32.99923893437547
-14.50502303853363
4.263509431166278
-18.35876742819283
14.12059908306957
-0.02534108600680889
-24.70518232773747
-11.80928232255109
-3.021584853552985
16.663794915028
-12.84373567019695
-0.7984743912679781
20.67169093503799
-16.43663843839587
8.88486311337552
-9.057182557569117
9.13637520856666
-32.44179799926436
16.83811226436109
10.606223608811
4.99746212609187
1.721529062344804
-2.549491703187192
0.3459916340128079
0.4819710068295114
17.56180984903147
-10.62329498426962
-24.69959933705932
17.76108447229719
-6.411927301174766
9.625697623174343
-17.6722940116119
19.61080075280401
-11.56420436436672
-8.703718542520296
7.684240042076418
-27.6976785974604
28.71715709791433
-7.716303697909426
23.54402173935878
-2.680767565091127
-13.14695047636073
-9.708774020281416
5.750410880579002
-24.25488993064817
28.21325307035803
17.96282376611785
-9.184869690850171
-21.11579527007171
22.22326094615681
-18.32101269616124
6.245181720348701
-25.72827658849742
26.09206144926011
-6.608966581109264
6.519610278090043
-29.95034171457418
7.881205965784748
15.54952547069962
-0.4563012801126284
-0.3845969617603219
0.9205586192586699
-0.07966037734979772
-12.1269593385055
5.747105192596338
7.951128099553448
7.834103086793373
25.30662795095509
14.21240976338921
-19.64097513613775
-19.87806257821184
-2.108903674605855
1.373220107725527
-8.321498990683311
20.27863628424113
-0.2745936223656507
-20.00407746153648
9.226903362082341
18.01375502106768
-12.97358156851196
-14.16061277546566
9.120439322907892
-16.5637081703187
-2.202291160216142
24.42216417885831
-5.65616484832464
-8.65829893668937
12.22171382842816
-20.12712306205855
-23.44356447898721
30.49266081846883
-2.774079548870554
-4.275016790609211
-2.678638280622469
-5.037683154638266
-1.64435678608038
9.36067822134175
-1.311879539189846
26.73407477290973
-25.4222535986034
-10.6550564185571
-29.73911162659605
16.95060356616494
-10.13475456407078
-4.883654083727214
-6.270870554783902
13.82490569597667
10.38786466300993
-20.84160323935398
10.45317262954951
-8.874459817804039
20.49707435356462
0.6232637810311477
32.50647096482322
-15.57827505787359
-17.55145968798209
-9.764629948805691
19.87880802545412
-10.11436592474375
-13.13391755581877
28.19595743620035
-3.631117816069405
-10.07905877583331
11.03153831128447
14.92717601883272
-9.896706436811773
-2.373150050353708
-2.65731953168153
-6.420262774369956
-14.34308402971262
21.67055355005796
-0.9072067459755524
9.378673148585856
9.187435682690374
-5.753310502685121
28.95916160632543
6.010484942427129
-29.21633604604874
-24.5335946929954
0.1385246184923683
24.39507726560433
20.10770498874852
0.7469685014095044
-1.53591135061985
-19.31876213953868
25.52116600343597
-16.99682972640331
7.126560432772758
-15.65089670981017
-4.102076803930973
13.52684425927786
-4.425641585049335
-4.999125870296398
16.71385838493672
5.943436379588457
-10.33996808520364
-12.31732667931773
-4.118942812100899
6.516212029736249
15.12045017821534
-17.51771939585109
12.44078205141824
-10.80005046650221
22.36606532752356
-24.00679691243987
0.02498106023862308
-0.03251573457190759
15.52449416227369
-15.51695948794156
3.167030912148877
5.925327141828945
1.683681278699747
-0.01380060620704238
-20.10479617475486
20.10092724085467
0.01766954010699091
21.70723112990909
12.8643117447299
-22.75388849511926
-11.81765437952404
-8.419431147969826
-7.639410030152193
-2.012736611524958
18.07157778964673
-6.439208526038405
25.17427158894584
-15.6800767832068
-3.054986279705517
-11.31601568514135
30.63798515732016
-11.40192044057545
-7.920049031608419
16.20322398953087
-15.22050082514739
0.7281037743953435
-1.710826938783167
-1.92125693528315
-1.294532433479708
19.41901335829082
15.93626803959367
-22.13160616918073
-13.08745724771983
19.28279537730706
19.1217470378286
7.097132007305088
-23.69695448934321
-2.521924555793001
2.962269772081278
-20.0224121935292
17.0600274571348
14.30362794255837
-16.59689208300192
10.64993855361938
-8.356674413181077
22.35877963859878
-0.630107714398766
-22.31191200248283
0.5832400782824626
-19.05303705539882
19.92628257046847
-2.794502450356346
1.584057792395552
-17.93672153318529
15.8683223555799
0.4843413852116586
16.73215199759286
9.197297257787262
-8.933544427433617
-13.09990807994518
13.16056744262714
-0.06059785169616763
-18.66657458535758
5.59429325453171
15.04232681069965
-1.970045479874113
18.94751690133346
-8.691926760539657
-10.25815783464812
-9.662541062229508
12.84316150737456
10.36108361531219
-27.57775737516279
-3.24481997657074
2.760892687068135
28.06168466465373
0.02229287152340274
-18.50866496777175
18.48630284442005
15.00397281304318
-26.43773208118468
16.82993594705226
-5.396176678911671
5.777720880737501
-5.467860553627186
-15.21118877019146
14.90132844307764
20.10012308633435
15.08462324012317
-14.90611004221697
5.776833707379789
1.724040776433743
8.69844252261041
-24.88950355673982
35.73824401187649
-2.810523469716455
-8.038216985425503
-14.61661958116999
35.71542738611465
-32.58061694118942
11.48180913624431
1.186090298311458
-21.70936307851102
2.998690929317712
17.52458185088098
-13.56690029049429
-9.100560569222962
30.79392413459131
-8.126463274871631
8.741283668397593
8.052792937070661
9.223096419936976
8.268815289776663
-17.49238558123501
-1.43431135678931
-27.38996042818938
29.43703617464256
-0.6127643896644266
21.7805267101599
-0.1418018097751192
-21.63869378226441
-20.0249604015482
14.20130090169932
6.508503688250581
-0.6848441883853748
21.06056108886857
-20.35078294658037
-11.68620014946471
10.97642200717647
-17.93546045803022
-15.31024117751138
20.12642840438234
13.11927323115908
-13.92162653273951
8.625226976983432
-14.84145638136032
20.13785593711651
9.968846647323492
-21.71201661829991
7.764066065443472
10.31807001339998
-12.23488584883759
-5.84725023000672
2.404206256164597
7.851368251475791
-25.6088841389053
4.95201969500676
1.178780368816114
19.47808407508772
3.842775821360528
-19.31479108477978
-5.635322289217043
21.10733755263827
-12.61983361261852
13.23678176711145
-15.14966276939528
14.53271461489883
12.2763925869055
-12.13300250393756
8.662076110459781
-8.805466193432339
-14.82519191658104
-5.608541454093388
6.249317623718669
14.18441574695238
-11.69578544493763
7.382917153344592
27.44861013905058
-1.671566578982573
-24.76317411031199
2.477087258895705
23.95765343039603
-15.50203800021054
-0.02051803961140387
15.52255323360325
-1.478551015383806
13.476207052517
-11.99777591163133
-26.44395480772733
22.41589626346405
-1.091259423981129
5.119317968243653
-17.16202462550859
0.491051305916082
17.42415727449987
-0.7531839549101066
-20.98348430366165
0.06987393697618671
10.77502331051782
29.24397352156051
12.45289160262489
-25.61264749485257
-16.08421762933786
10.21679929932335
9.114837750533964
-15.73519254896362
-18.36683079258733
10.7957488977877
23.30627444376126
13.44745208080498
-15.94488478958686
10.26149877422436
28.09761588009203
-22.28004665498649
-20.22431190635312
14.40674268124691
-17.58970237157574
-10.16217981892961
14.35550878972611
13.39637340078565
9.503522441215813
-22.24190770911984
-2.996807281062805
-10.31282273898551
-6.433115673362574
16.74572240516586
-12.74537460084255
14.96822630793581
15.61028515866092
-17.83313686574939
0.385728145320662
-0.2388732669527575
18.68999671190861
-18.83685159027716
-18.84991885378404
0.1303651119246878
18.71936019312944
-1.309809788259633
-14.93394135734558
25.74727358681749
18.73903701424596
-7.343856757626595
-12.70499004488423
-14.92889736345704
11.47897335825621
30.27933451523172
-23.0192708592503
-18.35436053462733
-8.58782065143904
12.00823982871903
-8.745706937903069
1.838834869242008
-7.072963160924136
13.97983522958501
-21.36805318156487
10.76519655625318
10.6023380425487
18.5544792584707
-5.854817002587464
8.057322558492711
-20.75698481437687
7.512483876438356
34.53780084871793
-3.029727357437457
-39.02055736770613
-1.006963263020033
-3.432574951382237
16.89850854816347
0.8521775385876603
-14.31811113537052
6.12836645363164
-2.431649470044456
15.89003360995061
-19.58675059353357
-15.79027897620869
32.09417248076568
-2.155238385095564
-14.14865511946163
0.6337206737406945
-0.8620303987246533
31.20617725834509
-30.97786753337126
9.618447805795812
-0.5468627118173188
11.3608047628527
1.715081182892841
1.752173320637603
-14.82805926638551
-3.943246256330442
3.267941855595291
6.562735469975258
-15.61365559591615
18.68081818594271
-1.359441318144912
-1.707721271893346
-20.65077102483334
22.510063864261
-5.734361028857879
18.53583950667797
-19.54079190277299
6.73931342495066
-1.438267121130928
7.113468670615468
0.6572162394984408
31.25071598002744
-3.279002878922862
-28.62892934062187
-12.31302863156006
1.021157242857123
13.6164867137082
-1.123558290797003
15.24187701848452
-27.73480544140606
-25.19084445949045
10.81474745506146
1.963236752130468
12.41286025228624
-6.890751156392458
-0.2743519486210385
-8.709500572610452
-9.750935850999857
3.863318246847459
19.82813003546794
-4.290144178905836
-29.5405945058746
-10.95666134187137
10.85755168620821
-0.2475342484881591
-17.17224961197359
38.87643868644437
-21.45665482598595
-33.26978599426415
17.80604864267673
-1.965262994490232
17.42900034607816
-0.06452763831366502
-20.25551968692608
0.05739892757762619
20.26264839766164
12.85031920935465
-34.89331707452419
12.76719735730906
9.275800507855893
-17.62454249657272
6.050184750784006
-15.28499900760944
15.28475721539089
11.45032514691761
21.97892470091776
-25.94948524666966
-7.479764601167597
0.08765454685559554
-22.61168734171262
-0.07643559627254649
22.6004683911279
-9.743395924096918
25.23572638660562
-26.14134620429548
10.64901574178637
2.876901936810961
-15.3805780864566
4.663058898072629
7.840617251567122
1.451432668946494
31.16146247691774
-21.16256999894778
11.99484789710396
-11.29057169464258
-6.573684214840068
5.869408012378062
-5.708720917584013
-4.041479306900275
24.56321108272135
-14.81301085823684
-35.54563346692962
5.729540767070207
2.529667672907437
27.28642502695107
9.389725211295167
19.34618455083424
-9.322524562220744
21.98148157449745
17.99406381599427
-25.68348479273044
-14.29206059775741
15.17142660884153
-15.49302298290561
-5.24041737814033
5.562013752204297
-11.51755316661238
21.37700149123227
-9.859682914873199
28.22892948789229
-23.0712900658763
-21.76101703084751
16.60337760880114
4.906749404943407
-18.99817257112023
12.44547685457843
1.645946311597985
-1.033749689610743
24.00939541960257
4.121532469663778
-27.09717819965612
2.134723015140385
39.7194302095972
-14.96816432900621
-26.88598889571124
-0.264124539080434
3.015376624337956
29.0664855049072
-31.81773759018068
6.59906271289506
2.752191089664521
-14.70501147818649
5.353757675626627
-4.895379971137178
15.25586702326143
-2.196580749808713
-8.163906302344584
-15.97318853851492
-9.648305647708474
3.317211097578
22.30428308864639
4.743131511011908
-19.72113256922934
-5.445907845149562
20.42390890336718
6.924534518969765
14.09266478292286
1.081552606407947
5.340239462884808
-8.530695743892538
8.680646182507378
10.87025322362367
-0.6704984098149189
-18.88040099631961
-0.5312293598448219
5.445808876265485
-6.634278311696184
10.51025202730138
2.937090005637784
24.48329584830981
-16.0512083278058
-12.48564435918191
4.053556838678703
0.7818796108377273
-0.8016517451039409
-23.50933433936068
23.52910647362036
-2.664314480273855
11.11115615001149
-13.12635512574754
4.679513456002341
-10.26203378227695
34.56865366248885
-2.59938875030579
3.96877196116992
7.673469209380444
0.07281976866095634
-0.0822313289548965
0.5816003669463915
-0.5721888066347653
11.64407675617491
3.672026737076953
2.83391562804052
11.18633481826707
-0.1610927652086499
-1.425646116362001
19.37740250580261
4.863511373783517
0.3179082677603484
-24.5588221473233
2.846035533799853
-7.436182016852705
33.15229660011998
-28.56215011705065
-4.907952583756434
-17.14674735349577
1.085887747455195
2.721140962566923
13.33971864347141
17.03483087982033
-0.8920649422674918
-16.14285340443541
3.540109931905699
-17.67915016043947
20.90830485431215
-6.769264625786748
-14.87944684353491
17.20059799575658
16.58787753827271
-18.9090286904973
-41.74517875653614
-10.32860643812214
24.44436514611946
27.62942004853427
16.50011870456042
4.588182912646115
-20.72425437573938
-0.3640472414851094
-37.29017238258673
27.87174995661429
9.624531714010642
-0.2061092880013238
20.13932703289426
-4.183630604319
-25.04173165243374
9.08603522385763
16.98128772366327
18.88384659471478
-19.3650156138529
-12.05978966375954
4.931676395745208
-11.36568726203695
18.49380053005041
4.306226234402925
-3.655773191989791
-1.736513589321218
1.086060546947986
-34.26119648513544
37.49361556706391
1.373207937187844
-4.60562701911579
28.9745663318029
-21.62712808545575
17.29155902754992
-24.63899727389898
-15.24698962686126
7.557175411354357
24.67110193915326
9.964111181481387
-16.27491845580583
13.52924377286109
-7.218436498537252
3.413275460385488
-27.07674525267233
16.82946383004264
6.834005962247683
4.766000102775626
-3.688804867206862
-14.04050308733805
12.96330785177112
-12.27399214609178
1.615185431873965
18.95414734728715
-2.688668401763934
-24.08548578897767
7.820006843454776
-6.932119597515736
-20.22946214519208
0.06563099661255652
27.09595074609427
7.329310967961502
20.67666001528385
-9.051823635961213
-14.32462589322455
1.901731809271375
12.42282463531202
17.58561425421182
-18.51648803299889
7.405664509928174
-6.474790731142958
-24.03074908716857
15.73830942876598
13.29987200794268
-5.007432349539322
-3.673415677144113
3.063982850973579
-19.25366528764747
19.86309811381555
0.690889035623458
-12.16200059959952
6.598214263437617
4.87289730053755
-15.66763326288102
6.515043484594832
10.52737618697143
-1.37478640868521
-14.4753101896689
23.87062109869696
9.982091596778886
-10.09246543353602
28.05219922098183
-9.525043025956069
-8.434690761490192
-5.269670597006918
4.025635768278206
24.46069052667238
-23.21665569794702
-32.09414585060365
8.291439553273786
20.66038560229203
3.142320695037603
-24.34674627252494
0.1344601802224883
-10.15930026252013
34.37158635481608
27.5521641275769
14.94244623165265
-14.46591796079759
-28.02869239843524
-1.56689250819044
-7.685580874807332
21.56742047472643
-12.31494709172648
-9.506872102561333
31.50793151210467
-21.39005953934596
-0.610999870197915
11.73709597993082
15.50682362202865
0.05710173379659249
-27.30102133576112
1.661716263030105
-23.41437074664203
-1.573147613077136
23.32580209668863
16.16720811708831
-13.27667824242953
-18.79462428474906
-0.4442922121470877
14.26700381782943
-13.82281405904289
-22.15267703059583
11.00324446076109
11.14925470105349
12.12278003515757
-22.63031147294268
-7.729624452771771
18.23715589055127
-16.72035548047275
13.8696803285498
2.850482079007194
-9.07794504292411
12.42938573345281
18.07696283928657
-21.4284035298218
-15.99175082364843
-2.810370446949219
17.50758883711313
0.7990335656578349
11.92222147578928
-24.30646978318252
11.58521474173414
-17.64522713322874
12.74026055331103
-11.08678424373508
-2.989860637816518
1.249261288472851
-18.42554534854899
20.16614469788832
5.783075515181748
11.84528155060399
12.99699796196389
-30.62535502775288
18.75018499293273
-2.131006972433343
-8.171260327935393
-8.447917692559308
7.499746013554527
-2.47056249778046
-21.39180486040186
16.36262134462766
8.912517195370139
-28.6815875528062
10.69112531450742
-4.794501439750118
-13.03931455015625
-2.720142155266169
20.55395814516513
-8.002140151416461
19.09182949792996
1.887403292939682
-12.97709263945468
3.019183667890337
13.85524777878527
2.047080362418766
3.933227021341012
-23.35643034950595
15.16006096052451
4.26314236763904
18.79231188801841
-15.08456198143034
1.557530504771871
-5.265280411359803
-14.4637551621841
1.14567423204214
-2.055554851078097
15.37363578124766
17.39850060471711
5.840607528032279
-19.06134808593721
-4.177760046813912
2.649947294104661
5.132507459581144
14.46420413328279
-22.246658886966
20.66306713621978
0.1867979931060706
-25.46027600733573
4.610410878055061
29.34949178699746
-18.76666268805768
17.99564630111803
-28.57847540005043
4.608890018370411
11.40310399190813
1.777509478955574
-30.02188224788563
-3.235608777624816
20.4577716410483
12.79971938445408
-4.14374899406251
0.3547545846063171
19.24116206154339
-15.45216765208766
6.919739578122379
9.388294496386804
4.803270010989824
-21.11130408550031
12.14769673755537
-7.088925872641527
-18.0738457727176
13.01507490779994
-18.49390351100297
10.04197263683454
16.12756518535933
-7.675634311191656
-18.56798828931664
19.88312246261883
9.090100057794222
-10.40523423109548
-7.963101410080625
25.56448691747015
-0.3923096148199645
-17.20907589256717
-21.07824508556913
-3.37320230125006
22.78295248337216
1.668494903444982
-2.333030841033383
19.31229594423841
2.82350085258357
-22.39367293644156
-6.819735096542511
3.604523894085606
-26.92024550308701
26.25478050722101
-13.809845193795
0.8943584431461541
-41.85601966890604
6.87718687838249
-18.67157671590343
34.57829365272621
-22.78390381520606
17.70923637872976
-41.64770814187676
-13.7008181510697
37.63928991421539
26.44215468700019
-3.63077696451942
-22.39911612322367
-0.4122615992582475
4.329990409061053
-1.433891701501511
27.7040564590078
-30.60015516656876
24.21452552331
-26.40095223938743
-1.142085730455477
3.32851244653257
15.5469877321288
-12.50502848941622
-24.43170716608933
21.3897479233572
-5.59568979301201
-12.91526354266072
14.29785186345182
4.213101472220896
33.38048717682095
-16.9774620092521
-19.77708074556462
3.37405557801159
-11.47061610788684
1.623816674891996
12.46280441974272
-2.616004986742554
8.003677137143605
9.725358168862638
0.0719054850414271
-6.278998705960104
-9.83413077514671
30.8583433587854
-14.74521387767943
9.91802154369848
-20.30768609063001
9.019993312448467
1.369671234483359
-19.44603137855273
25.25335719439114
3.440954207610661
-9.248280023446348
14.29374129439615
20.46828020114767
0.8247430531784523
-35.58676454872155
-27.20620588445711
-8.56916152027828
-11.61579519225223
47.39116259697467
37.76190012676469
-11.31611033039517
2.566613443678653
-29.01240324005324
15.62985401170452
-36.03028737478181
-8.399865618935024
28.80029898200986
21.47773938779195
-12.39734862714143
5.986877443457018
-15.06726820410976
-20.33083709652948
0.1183294679355423
-3.002602204961617
23.21510983355324
-21.24648677783905
0.08016431974713958
7.469195888889963
13.69712656920034
-10.94749377807051
-20.10921752849911
18.79010292024957
12.2666083863123
14.02253092199408
0.2325276494595086
-14.25515435242204
-14.44879582273394
18.78470847345073
33.42598747604954
-18.05955139556619
26.02108845411671
19.37782778781117
-27.3393648464294
18.90221474057912
-0.2253236684475516
0.2772774902784946
-10.63563412089041
-9.696077893719345
2.446878373848858
-23.02844062001795
-6.624643638292193
-21.15589887378823
10.51861533739637
-0.3102102416817814
3.466602975396986
14.95760813455683
-17.23812081164404
36.98308309514873
-16.94491989670282
-15.08619200939089
-4.951971189076768
-4.206167592626117
10.89739479968046
-26.80044473555816
14.21629387498341
3.805079987414656
1.698503772189919
-19.71987763459226
1.290648220761712
8.785916466377385
10.57762786156911
-20.65419254869439
2.260044084198473
-3.670184529717242
0.5431842530905842
0.8669561924259086
6.40472768012295
13.00554506203013
-1.270590777271321
8.746092828471999
7.969273717849652
-0.3301410749062589
-3.648562318258333
-6.71763222302155
20.16752001416173
-9.80132547287781
-42.68333986516137
9.545794231168234
15.07799423838917
1.65353739223025
-19.68624445499064
0.9294442974562063
17.1032627652923
-10.83523692345291
20.94404202607955
2.360953606062887
-12.46975870868441
27.00985925932138
11.54513256353579
11.15953027545889
-49.71452209832321
11.3395696828389
5.469771486364281
-15.80925329500223
-1.000087874200621
-23.53115905279471
-5.929674900475892
1.333599134698053
28.12723481856868
1.217346308405543
0.585677285682811
-25.33418264688644
-15.29341311219442
-5.593191490012562
-8.039322705759945
15.43120720744127
-15.93451770034416
2.156847885119065
16.232732091814
2.758661721734029
0.8590206550612344
-19.85041446860813
38.53842549924372
-20.81238707557005
3.584221918845439
-21.31026034251957
20.43259926158373
-27.22360101809855
6.790935724264871
-9.102298253824573
29.68540643422412
-1.453825973261988
-19.12928220713805
-17.34794521980628
-5.428475936768189
14.93610437911168
7.840316777461204
6.842039059227531
-6.659304491359018
-2.53553870519131
18.2911276727296