/*--------------------------------*- C++ -*----------------------------------*\
| =========                 |                                                 |
| \\      /  F ield         | OpenFOAM: The Open Source CFD Toolbox           |
|  \\    /   O peration     | Version:  v1906                                 |
|   \\  /    A nd           | Web:      www.OpenFOAM.com                      |
|    \\/     M anipulation  |                                                 |
\*---------------------------------------------------------------------------*/
FoamFile
{
    version     2.0;
    format      ascii;
    class       volVectorField;
    location    "0.3";
    object      U;
}
// * * * * * * * * * * * * * * * * * * * * * * * * * * * * * * * * * * * * * //

dimensions      [0 1 -1 0 0 0 0];


internalField   nonuniform List<vector> 
19632
(
(5.005869219423623 0.01072483871154191 0.004900408298446319)
(4.999946088010498 0.0001606030209376963 9.22934996359425e-05)
(5.000092785694312 3.845966489662598e-05 -1.062219302877411e-05)
(5.000029023262279 0.000183872086989108 -0.0002200750389298534)
(5.000004089730879 9.446634726381913e-05 1.115478870129141e-05)
(4.999852103025361 0.0002851248404561407 0.0002292902519831696)
(5.000049832475954 0.0008792406943477875 -0.0002355065384916341)
(5.002328893843759 0.001434042108585346 0.00216818647849089)
(5.003889990037815 0.0009916858295996346 0.002883265547920193)
(5.003836935603656 0.0005048064728423766 0.001711106166117338)
(4.999991421544674 0.002694731999349991 6.116777183324455e-05)
(4.999884248487851 0.0004560608720737749 0.000376766314252229)
(5.003740268681126 0.0006711857573065466 0.002312915939016682)
(4.999933775814859 -4.061150145022695e-06 -1.204154491060428e-05)
(4.999930805901382 0.0003340589802967755 -0.0001910734235736356)
(5.000084306615356 0.0004238349213318881 0.0002058984699452747)
(4.999998857191448 0.000259457688584615 -0.0001213482934020767)
(5.000007204402338 0.0003742820050613472 -0.0002404332205598533)
(5.000052305777235 7.440335656680753e-05 2.295256382304294e-05)
(4.999963297681655 0.0009888198049528018 0.0003510008805136173)
(5.002228136290994 0.0003767694279921626 0.001324457719632291)
(5.001244287562023 0.002478134516996807 0.003167487993886516)
(5.004945061085604 0.0006424999695531373 0.002171220338093157)
(5.000069611933331 0.0003180973799711428 -0.0001470349741881111)
(5.000331132024169 0.0002191629478911035 2.622153886664351e-05)
(5.003693604032191 0.002191019584145665 0.003596002004312786)
(5.002782414797076 0.0024767171264121 0.001949179039299355)
(4.99982740041225 0.0004710897409922359 -0.0001632014543132866)
(5.000074498567825 0.0002338519362746324 0.0002057786670559437)
(4.999975107032799 0.0001210708560016689 -1.015075344420237e-05)
(5.000056865925179 -2.519997941688889e-05 7.324057590414705e-06)
(4.999866358867447 0.0003081399039096136 -0.0001086079601453055)
(4.999956477602843 0.0004062039005703315 3.973418606912576e-05)
(4.999847519577362 0.0001791972776292958 -0.0001212525865141979)
(5.000028673437336 0.0001179859396529493 -1.401920323513349e-05)
(5.000100800415976 0.0001668787985206772 0.0003972521308152999)
(5.000560576025516 0.0007853417691826995 0.0007674009007312026)
(4.999903037262622 0.001762235120533693 3.298062836548064e-05)
(5.002345151605347 0.0009279472977684472 0.002520112080322265)
(4.999975998495011 0.0004075403714150267 1.037501911503545e-05)
(4.999880388777153 0.0007202941917536679 -2.594745498664249e-06)
(5.003836513575746 0.001643519926298481 0.00318304858140033)
(5.00025164995809 0.0005239074215319159 0.0003034430539240248)
(4.99982284456703 0.0004585591132526337 0.0002323569595888485)
(5.000011555739561 8.817361735102247e-05 -6.131826486932588e-06)
(4.998858101043577 0.002450469419743934 -0.0009085201232688961)
(5.000287638128431 0.0006129377532658517 0.0003179641679738784)
(4.996171051159251 0.0003355242069289383 0.0001409724824980257)
(4.999734050086951 0.00154197421495198 -0.0001372514387753603)
(5.00011350703376 4.354155838951239e-06 9.061842405749637e-06)
(4.998745199848403 0.0004868210632499507 -0.0001004984401017871)
(5.000021912032615 0.0001003631804518682 0.000622719371347455)
(5.000043333458242 0.0003953597274002764 0.0001328238366882712)
(5.00029834248473 0.003889786972749949 -0.001104313988448482)
(4.999991978139424 0.0002588164185068504 0.0001854252080822871)
(5.001097975468774 0.0005184815340444264 0.0007336981287271269)
(5.002773629198692 0.0002178425703687756 0.0008378594898666568)
(5.000403999986076 -5.567332999942198e-05 -2.788664920167776e-05)
(5.000004254130594 -5.371984672890122e-06 -0.0004363021644441819)
(5.000007799179467 5.059484946070387e-05 1.139994292761462e-06)
(4.999971782760524 0.0001392731010769108 2.638960106148812e-05)
(5.000109261982497 1.382073050760471e-05 7.723553783241014e-06)
(5.00006908155703 0.0001139285318296589 -4.152550394146311e-05)
(4.999957492583349 0.0002481778161313587 0.000386603526673433)
(5.000303939872148 0.0002121448176379581 0.0004921513387774108)
(4.99999032155046 5.963966726367333e-05 -2.293818045695419e-06)
(4.999796529333369 0.0007525875244567224 -7.629049526915323e-05)
(4.999967475838565 8.314561512775688e-05 8.150165064783686e-05)
(5.000188830074997 0.0001155790495850439 0.000275444438370676)
(5.000295162565777 7.31865864823992e-05 0.0007061403334426357)
(5.000022651103516 0.0001354031645713969 7.846652803368793e-05)
(4.997093808675388 0.001091040635319199 -0.0002097162706863)
(4.992816421236897 9.156460927190347e-05 0.0001664579890769425)
(5.002995192590038 0.001088167469737576 0.002176524119970168)
(5.000358869989197 6.159639825353421e-05 -5.97239545794518e-05)
(5.000705569246112 0.0002186656075880388 -0.0005946144306930688)
(5.000018095765357 0.0001741776011499722 -0.002098599695177593)
(4.999783540495685 0.0009433679619534881 0.01132238345486073)
(4.999858429463973 0.0006975738980746548 5.006032940840439e-05)
(4.999713692417891 0.0005519965440605941 -4.403218678985391e-05)
(4.998124682850107 0.002716117960851727 -0.002450250759125468)
(4.999852510218915 0.0004096824967559005 0.000116466646523142)
(5.000611547706958 0.001177005402870285 0.002226469105963049)
(4.999790702865615 0.0003908050650638212 -0.0001461775395575572)
(4.99962065098032 0.001035046179007441 -3.864795323752064e-05)
(4.99954980178446 0.0008669814707066628 -2.070686678016729e-05)
(4.999974398000176 7.39735082496771e-05 5.909390693220396e-05)
(5.00038388695238 6.780224178944173e-05 -0.003749551697731634)
(4.996616214521026 0.003702963473833608 -0.001370923637835625)
(4.999921298051567 0.0003911872846182408 -0.0002614872686047516)
(5.003808681692206 0.0009154886678689921 0.004697962837899259)
(5.003883393094393 0.001144475209722081 0.005171138202709565)
(5.004203229272796 0.001023717749872019 0.002017686795035038)
(5.000035961346494 0.0001973179758423603 -5.352723207782165e-05)
(5.002471567446341 0.0004414793897542885 0.00211334535921394)
(5.002966293135072 0.001955358175513378 0.001759999897766596)
(4.999500979051254 0.000143974103893859 -2.602839381025592e-05)
(5.000011649953162 0.001724128466472878 -0.0001093322915697199)
(5.000568561571384 0.00251935331524875 -0.004579414202528191)
(5.00008682982444 0.0001353945448379697 0.0009982137992180337)
(5.000020861230946 5.609767496290725e-05 -1.638651767748337e-05)
(4.999932959577463 0.000400316453499879 0.0002158732257855163)
(4.999958486402019 0.0002256735566458093 -4.90631692227212e-05)
(4.999935713387875 0.0002483861185877452 -9.073687478650606e-05)
(5.000186369081097 0.001993877087158293 0.0003404885186626238)
(4.999983297804039 0.000341717929592744 6.324698557272234e-05)
(5.000027168496223 0.000131348076764102 3.424676236308267e-05)
(5.003446130901171 0.00150676754013941 0.00375623469325401)
(4.999978774001138 0.0007243404718090483 0.0005241184018524964)
(5.000013029263148 0.002597775297322763 8.887824086027168e-05)
(4.998221779171527 0.000445972464081075 1.801752056612537e-05)
(5.00324478657208 2.384440636713078e-05 0.0005023485081265347)
(4.999766112728872 0.0006331857403644827 -0.0001107599918530412)
(5.00275191407528 3.051061953709143e-05 0.001434160980892715)
(5.003611507210655 -0.0008517718714091802 0.0003386226040106019)
(5.002761493512989 0.004011708442405046 0.00631320860696149)
(5.002605894450772 0.0003127964173399502 0.001032093191557067)
(5.003084319805132 0.0003144485759235237 0.001060696342721692)
(5.00011637108105 0.0009798879965238064 0.0002419274937190463)
(5.002796081600159 0.002162595607904628 0.003142247712054918)
(4.997019659671395 9.951411456316861e-05 0.0002136359699255015)
(5.003076796069073 0.001733822260482927 0.00334359801403631)
(5.000015798349809 0.0001125602714421185 -2.189233186250845e-05)
(5.003109484897598 -0.0004244204074357215 -2.26575738776925e-05)
(5.003182227473802 -0.0001515497093379843 -0.0006324466956184049)
(4.999884551888257 0.0004433097471896753 -0.0001163984770134867)
(5.002066883467457 0.002102632757679064 0.00305822314648891)
(5.000176026685403 0.0001214501893413854 2.321562056573221e-05)
(5.000055043859848 2.690774836656684e-05 -3.354233662450386e-05)
(4.99805941195487 0.003261915884657057 -0.002806157090814169)
(4.997556536777426 0.004888124814795757 -0.002214121008786316)
(5.000091756997304 0.0001313743798761168 1.138783766916408e-05)
(4.999876248989486 0.0004871489580560329 -0.0001233095227422787)
(5.000038800939978 0.0002469784335310454 -1.22403877644276e-05)
(5.001052581341879 6.391178301754542e-05 -0.0003564729504342859)
(5.000083446908413 0.0002103864440801891 -4.036731158252917e-05)
(5.003276465213122 -0.0007886578952148483 -1.817608210171077e-05)
(5.000748515545775 0.000245135677313993 -0.0004395948539263785)
(5.000140196489986 -2.078472732093335e-06 -1.946037159609352e-05)
(5.000351840163828 0.0004481685958709623 -0.0004500354805704654)
(4.999970413584062 0.0002451153955287602 -3.279617698845427e-05)
(5.002764638252468 -0.0009102186859782185 0.001788852788325461)
(5.000069172191946 -8.047620393488866e-06 3.699762341807774e-06)
(5.015420734992797 -0.0007348906440811481 -0.01301376285155182)
(5.000023077576194 -8.529962573239764e-05 7.898318589891437e-06)
(5.003670096105632 0.002833012398299078 0.004883452246743388)
(5.00008119877409 1.37222234806039e-05 -6.859655561293853e-05)
(5.000590353637448 0.0004248048218037693 0.0006161540436864516)
(4.999845043723241 0.0003507332622422865 -5.473682157180559e-05)
(5.000160143734878 0.0006979499183604114 -0.0003374048834950808)
(4.999993021769128 0.001836450399780599 -5.189449482917995e-05)
(5.000693644681743 0.0003594724096791725 0.0006072344702658691)
(4.999952997078565 0.0004019355501950706 0.0002205695763981211)
(5.000063891906645 3.077700144950633e-05 -1.232620684692631e-05)
(5.006287664843795 0.0117735021393564 0.006912358025446795)
(5.002739889225505 0.0004944774956233778 0.001049386251711884)
(4.998853137771673 0.001573006432756623 -2.78402935323455e-05)
(5.002248623130845 0.000761317525178341 0.001310733386626633)
(5.001949283705698 0.003164889717614714 0.005785878920808223)
(5.000068320655578 0.0005732597578785635 -9.684277184300792e-06)
(5.003363478143563 -0.0003905187420316983 0.0004275810551214508)
(4.998738152629676 0.0001738155649937297 -0.0001129633719725349)
(4.999972177730688 0.0006131849697026151 0.0003801643859925163)
(4.998518061424281 0.000333866837401906 -1.075171936453703e-06)
(4.999992041696241 -0.0002212894808263401 -7.391681684676024e-05)
(5.000185733911073 0.008584952351555358 -0.007661402908449237)
(5.000055833826448 0.0007001086519192413 -4.486723682599217e-05)
(4.998579623440536 0.0003372101366382132 3.55842629518504e-05)
(5.000087530243324 -1.472020351230314e-05 2.584344516351204e-05)
(4.996738194454922 9.849010834380689e-05 8.747327960475642e-05)
(4.999882467277699 0.0004494407597011327 -0.004745496645110067)
(4.998232120567633 0.0003918835647721912 -9.125964788907089e-06)
(5.000290858221899 0.0003272871679859398 -0.0005099453261789084)
(4.99989363117389 0.00104796633946919 6.788803040699655e-06)
(5.000735955396877 0.0006324520763045251 -0.0003538077378146773)
(5.000587982502111 0.005508167147811253 -0.005207850678870562)
(5.000436147026385 0.00327144329278702 -0.005716719951394058)
(5.000009112362481 7.555061410039621e-05 -4.257808923742838e-05)
(4.998344015554815 0.000111099444171646 -0.001691445860031507)
(5.000392127226895 0.0005610922475827386 -0.000514658362152909)
(5.000071134688956 0.0001800141741302079 -6.224849305348231e-07)
(5.000115483614757 1.039649192512214e-05 -1.370319255228241e-05)
(5.000056597268838 9.678769493955431e-05 6.252456658844319e-07)
(4.997773413269814 0.004861728679852065 -0.002320458743041143)
(5.000470999446159 0.0005568972759517071 7.737450507034969e-05)
(5.000074901729803 2.952312809124024e-06 2.494199040598807e-06)
(5.000097269993165 -1.947649511764441e-05 5.531673737427454e-06)
(5.000095009511891 1.067747365715206e-05 -1.033945266773293e-05)
(4.997843706364874 0.003935949198994976 -0.00175865771018397)
(5.000068984314299 -1.894098644707774e-05 1.86309904824953e-06)
(4.995134261443721 0.0008225993736576067 0.0005297015354945296)
(4.999318958770631 0.0002180444906236002 3.521672793599736e-05)
(5.000099767333742 7.908841741801188e-05 4.953349291067015e-05)
(5.000107620064194 8.905445074875113e-05 -2.496820561624308e-05)
(5.000148494906898 0.000290464864016806 -0.0001805041315252092)
(5.000123017931438 0.0002697215984638471 -0.0001429316769886658)
(5.000119649829129 1.829822249224199e-05 -9.45699016409797e-06)
(5.00006404331116 0.000124453465042535 5.367600419992701e-05)
(5.000052329927868 0.0005205601033622242 -4.507066237047615e-06)
(5.000184189656449 4.876278044924994e-05 -5.544660155809869e-05)
(5.000024840404065 2.629145338309742e-05 2.378825849533067e-05)
(5.000128717613802 0.0002631618461790864 -0.0001491255172913521)
(5.000129290796738 -7.740954973992921e-05 1.841020793668199e-05)
(4.999210867872174 5.858815837310927e-05 -2.931057128202677e-05)
(5.000063162869653 -4.602469060155692e-05 3.079141845535183e-05)
(4.999961293862126 0.0001043678453578719 4.363194396314612e-05)
(4.99616315650299 0.001769427076374966 0.01465465099368573)
(4.998903894822778 -1.846940552390463e-05 -5.791529747655708e-05)
(5.000588423929864 0.0004523267884309466 0.0001374050802233376)
(5.000037649062937 0.0009078432745703229 -6.375096587578055e-05)
(5.0001127954136 0.0005297005160181742 0.0002937762846680629)
(5.000707972320529 -4.960133997777469e-05 0.0003081237815622721)
(5.000094099617396 5.412034641719581e-05 -2.156270674866794e-05)
(4.999211763029375 2.76455422186197e-05 -3.047785951969884e-05)
(5.000247798883537 0.0004305735598087547 -0.0001114586108048074)
(4.999965753024914 7.296115552613493e-05 3.975711439909527e-05)
(4.999884503920067 0.0003387673289497893 -0.0001853038939227045)
(5.00027874993748 0.0002131823552646779 -0.0001112185007171968)
(4.998989015147603 0.001207874180745618 -3.014221673270994e-05)
(4.999847767204364 0.0004806656872425247 -0.003706805186160823)
(4.999999585097128 7.854944653124793e-05 3.060129051710765e-05)
(5.000144733430561 -1.840011830826419e-05 -0.0001151512898810281)
(5.000293194564361 0.0003347194991277797 -0.0001111551176753362)
(4.999998245417215 2.934690818137505e-05 -4.610083257721637e-05)
(5.000025602572737 0.0001904773727008496 -0.0001193692310461968)
(5.000072784159077 8.293822320135188e-05 -1.360035015305889e-05)
(5.00302386395276 -5.989514279641724e-05 0.0001710414454514032)
(5.000028794033399 0.0001196992501198757 5.822406177966179e-05)
(5.005233310132189 0.0001751216998190768 0.001205647146641616)
(5.000136393037836 0.0007222677163109877 -0.0004394534339818667)
(4.999950189253508 0.0004249766080249871 0.0001241554199435406)
(5.00061389902482 -1.165864140836351e-05 -8.206762728489289e-06)
(5.000101849782826 -2.906121389688952e-06 -1.003070189392967e-05)
(5.00012582856015 0.0002105947966234949 0.0001031410382785909)
(5.000042170928727 3.800931466242818e-06 3.739243549014542e-05)
(5.000087693600156 2.935387637203437e-05 5.600268846419625e-05)
(5.000134183428941 9.356626101644903e-05 0.0006979867557369791)
(4.999933923769349 0.0002397753696095615 0.001374598498707517)
(5.000007655176162 0.0001171312180045741 0.0001001296935468582)
(5.000068438409672 -5.735224491954832e-05 -4.454951580696049e-05)
(5.000673631921544 6.120742034241768e-05 5.522987185174181e-07)
(5.000450940905618 0.0001928246448364489 -7.520813240633212e-05)
(4.990548597349973 0.0002994948272419182 0.01121814363684342)
(5.000109677661452 0.0004269442024529494 -0.0001996009614077984)
(5.000098960378858 0.0003211008902648998 -2.124449559725433e-05)
(5.000109331558734 1.482948711294178e-05 1.099354946856941e-06)
(5.000152984361288 0.0005041247221635407 -0.000172187980350228)
(5.00010805800501 0.0003062882571445711 -0.0002025781705003206)
(4.999917424009555 0.000104832581906987 0.002240488212341433)
(5.000783641684303 0.0003678495703847395 0.000327462840866656)
(5.000096814967295 -3.055752432584522e-05 5.444206833384672e-05)
(5.000298273004785 -0.0002164651749288699 0.003870337359615508)
(5.000073493060654 0.0002977472364647726 -0.0001097959568037243)
(5.000121774388044 0.0003230014983466639 -0.0003078014151885317)
(5.000054800601403 -5.328253360279254e-05 -5.825128262498395e-05)
(5.000156534048329 0.0001300499397567826 -0.0002481680439349988)
(5.000085584457644 0.0002964029710968563 -7.782830820233655e-05)
(4.999507840523675 2.661930159751581e-05 1.388992476632703e-05)
(4.99982705942233 0.0006800677914199771 0.003180808512278062)
(5.000178568666975 0.000405627640543205 -0.0002942578099586692)
(5.000327324076398 0.0004562507320770654 -0.0003526719670451214)
(5.002229849031736 0.0003273686332057655 0.003882953067246143)
(5.000266184378408 2.181235737567136e-05 2.921429749102968e-06)
(5.003984705692144 0.002828883683278803 0.00408886329726969)
(4.99997653146201 0.0001596944336893271 0.0001809511115356437)
(4.999889013791572 0.000186112046665352 0.0002570679643641168)
(5.000217898729724 0.0001504110341020598 -0.000121924303962595)
(5.004396429927773 0.001953182365806832 0.00185287321989874)
(5.000512830330458 5.58065872228929e-05 -0.0003400534544534802)
(5.004335857684659 0.0006079215864467654 0.001528930487385464)
(5.000282743248122 0.0002370380504859406 0.000138264688366566)
(4.997725259779997 0.003607923561054055 -0.002583238746018367)
(5.000119467992533 1.216100762465414e-05 -1.25230831064929e-05)
(5.005901429536132 0.001997567564441648 0.002106323077646139)
(5.000885059955131 7.872629595611749e-05 0.0002090789162629575)
(5.003216533511424 0.0008124220027960605 0.001924309947677099)
(5.000257443829966 8.250308340885015e-05 -9.191719868902295e-05)
(5.000280972096576 -4.625745253877996e-05 -1.863606121205302e-05)
(5.002942065768762 0.0009510480784602147 0.001810354364722755)
(5.00196931326358 0.0006831597995315632 0.002657375827821592)
(5.001819516395468 0.001911966162045991 0.001970211665889377)
(4.997990292219402 0.0001765052511660159 0.0001745952763688782)
(5.000095055353348 -1.830252874023225e-05 -6.796774902951889e-06)
(5.000144839351212 0.0001616485713702252 2.430258492117387e-05)
(5.000074852612603 3.012879701426704e-05 1.588728907443198e-05)
(5.000076142960129 -0.0001165012182546314 -2.724115217625963e-05)
(4.999907998107451 0.0009216990590053519 -0.0003490432535122939)
(5.000297486099281 6.451897267876405e-05 -2.137841658537979e-05)
(5.000020685048151 0.0009694981098516943 0.0009462781344622068)
(5.000067077961798 5.429992296100598e-05 4.15475112902694e-05)
(5.000085237111361 -5.071128562492795e-05 -3.745587261863026e-05)
(4.999978040436716 6.126274980337314e-05 1.559340764658867e-05)
(5.001157716636284 0.0008336325161370493 0.001880509081309877)
(5.000063520822166 8.045132145025779e-05 4.573382430283796e-05)
(5.000032327538905 0.0001832753496758016 -9.990270054849769e-05)
(4.999960477425567 0.0002578478740686126 0.0003673951976215017)
(4.999949242757053 8.464032434989928e-05 -2.798845429818793e-05)
(4.997268382298209 0.0001573512393332583 -0.0001272501035157327)
(5.000625288559254 0.0001208434803895182 6.494148752835659e-05)
(5.000056392933255 8.242059736036796e-05 4.235647337982643e-06)
(5.000038893277273 0.0002101041674195132 0.002898975196157132)
(5.000854614146813 1.356621139350649e-05 7.048998727021588e-05)
(4.999986990045183 7.158457194040164e-05 -1.377657112508192e-07)
(5.00011039199527 9.738167370136528e-06 -2.571705192126456e-05)
(5.000410512120713 0.0005724072653604712 -0.0003210350463036257)
(5.000344717041931 0.0006061624538017005 0.0006116291556395689)
(5.000075895866868 -3.765001755802108e-05 2.195110528711897e-05)
(5.001453163068724 -0.0003328308237814751 0.00016021757505878)
(4.999997469204696 0.0004163503556786086 0.0004011351806513358)
(5.000124569150752 0.0003545609963189608 0.000153708203024588)
(5.002213795846662 0.0008822110500033176 0.001120324924973107)
(5.00125937580325 0.002602687291795121 0.003817289634313358)
(5.000233514618952 0.0004723836015859857 -0.0002800455830231283)
(5.002822063207408 0.001706181800182592 0.003968928377362384)
(5.0000309552438 0.001169933357880124 -7.551751497023173e-05)
(5.000167963841584 1.471925687449949e-05 3.835408816725837e-05)
(5.000529877669994 0.0003405777224241307 -0.0001299666019493043)
(5.003803915883896 2.975158278870294e-05 -1.771845233689659e-05)
(5.000506352501475 0.001200216462557967 4.391428161299773e-05)
(5.003911667217776 0.0008971633991033149 0.001344829485633604)
(5.011710205310068 0.02310924159887676 0.00443227005576231)
(5.003408501692145 0.0009100305425772415 0.00174308405376668)
(5.003052312288839 0.001337132255777806 0.001258457438900187)
(5.002509078050982 0.0005983614047303154 0.0008939652205684921)
(5.000325390984168 0.0009058456377745647 -0.0009068518777734919)
(5.000141292257467 0.001026769445714067 -0.0005542740242174139)
(4.9998466004272 0.0008724738956736271 -0.0006461390872560564)
(5.000156670761024 0.0003205875918400336 4.939287986187854e-05)
(5.000118882037834 1.503164903036281e-05 -0.001189899516421391)
(5.000187482220023 0.0003255517569380783 -1.920425496079436e-05)
(5.000069930155575 0.000159645206085434 7.419701347995942e-06)
(5.000185788174094 3.243378819614838e-05 2.285183737913894e-05)
(4.999682306079501 0.001113687226435418 0.0004888176361230865)
(4.99947819377631 0.0009670932317553818 -0.001058608652270383)
(5.000022462685036 0.0001545002642403291 6.52778121979228e-05)
(4.999798967197677 0.0008616113421693628 0.0006920049573811553)
(5.000000486801758 0.0001544373926244388 -8.615603169743204e-05)
(5.005896400665113 0.007696302018576038 0.01109617555492919)
(5.000031051132752 0.0001256872484172474 -4.554623303664838e-05)
(4.999883279626689 0.0002422823964741577 -0.0002117087544245487)
(4.999723443634966 0.001257813227242875 0.0006978164751909858)
(5.000053968229169 5.77986214981244e-05 -5.680542533383924e-05)
(4.99995788590102 0.0004769213944262186 7.716267307032184e-05)
(4.998307806745966 0.0005773607424714523 -0.0001214471842998709)
(4.999535774740364 0.001391495262930355 0.001001137637936885)
(4.997297677375761 0.000320533343919009 0.001095100830267989)
(5.000095916598041 2.181691752070642e-05 6.651721778003259e-06)
(4.999953822685879 0.000539066449030822 0.0005706246409068721)
(5.000028949848656 0.0007613865852150544 4.771867809554269e-05)
(5.000135268145201 5.927572270640876e-05 -9.916800554263468e-05)
(5.000352781435683 0.0001718263814991511 -0.0001029924490470267)
(5.000423356548228 9.647213454144386e-05 0.001110045956951523)
(5.000010413652303 4.904336516501993e-05 -2.69456078667446e-05)
(4.99997197795656 0.0001479030084891208 -4.158578386855439e-05)
(5.000171680428648 0.0006839329233595996 -0.000316971622910402)
(4.999980080188639 0.0001072914329754636 2.840530750839689e-05)
(5.000067052073344 5.577518756912472e-05 -3.275446307027652e-05)
(4.999922345094542 0.0002464729981754677 -0.0001234706364341662)
(4.999723434144395 0.001150233233145626 0.0001013636677002194)
(4.999952477737869 0.0002301106048964964 -6.452838422866565e-05)
(5.000319578061068 0.0002154889941147427 -0.0001598132511843274)
(4.999981001442876 9.355196873959971e-05 1.543397090412789e-05)
(4.999865494901783 0.0003906531086982848 -0.0001545094902694499)
(4.99994807526989 0.0002711237031579461 -0.0003657796383636811)
(4.999774576228736 0.0003098597331840364 -0.0003148985609655159)
(5.000019255468454 0.0008685376199377404 -3.301310239645212e-05)
(4.999956965592673 0.001395436879699088 -5.2107192960369e-05)
(4.999919132717326 0.000342038262064113 0.0001453363763139477)
(4.999925367461453 9.000945812117873e-05 0.001765192595088133)
(5.000096019802262 0.0003558506489711838 -0.0001379329503925643)
(5.000164357604093 0.0002370036378390837 -0.0002003375567110701)
(5.000004088348942 5.84049546954374e-05 8.424514664485736e-06)
(5.000178283749583 0.0001875726738701157 -0.0001806866096126601)
(5.000103610466175 0.0002009346680318901 -9.215044979393661e-05)
(5.000026533371507 -2.707427075637592e-05 -1.96302372603379e-05)
(5.000072646296713 0.0003993516109750284 -0.0002101596613039341)
(4.999949647140222 5.950180141781764e-05 -2.850728453322493e-05)
(5.000035160217839 0.0003024354894749081 -0.0001433327111823144)
(5.000086329601632 0.0002638654271390663 -0.0001030449783221017)
(5.000034961181433 0.0001430748928079932 -6.806965192643036e-05)
(4.998140229967637 5.15958286817724e-05 -1.728629261270265e-05)
(4.999966944655681 0.000131912214693557 6.529161212203016e-06)
(5.000146723507089 0.0004723605208986334 -0.0004984808837185301)
(5.000101700494292 0.0005767181857187801 -0.0003207443742792561)
(5.000100696716729 1.31878472104919e-05 -1.568500139451037e-05)
(5.000605405381203 0.001139564034722972 -0.0003983492271339476)
(5.000687623959336 0.0008405342468130325 -0.0005112342647320624)
(5.000275066235231 0.001812412961359281 0.0003831742751977855)
(4.992877715003416 0.0004714385488664623 0.000193982970637988)
(5.000504221039032 0.0004015066574608134 0.0004962097715420892)
(4.999923028991205 0.0001545074467276762 -6.426864794153113e-05)
(5.000269746421658 0.0008194070727059313 -0.0006109708140175986)
(5.000353244573724 0.0008751652031556038 0.0002073586486876492)
(5.000056978841443 0.0002265430603017984 -7.911664802718315e-05)
(5.00014056900804 0.0005166627212779298 -0.0003377495569903166)
(5.000729189768094 0.0002919602091995705 -0.0003916810288419129)
(5.00001406054496 0.000261326993138035 -0.0007384383036944863)
(4.994928573914291 0.0003700951419325632 0.0001118389927501852)
(5.000019155870129 0.0008211443663262191 -0.0003930517505325483)
(5.000039482747421 0.000981116671157634 -0.000431719985567386)
(5.000098353691848 0.0003655168275510028 -0.0003206331686177957)
(4.999978360533719 7.291957586730189e-05 4.60502135106339e-05)
(5.000001308479571 0.0001467830452101132 -3.880774979172409e-05)
(5.000025668493642 3.875819884939131e-05 2.136427532372142e-05)
(4.999946345916659 0.0002199717878436742 -0.0001609314215906191)
(5.000034306941815 8.211635509446105e-05 -7.354215018373758e-05)
(5.000125159383274 0.000825442104133967 0.0001719241661085795)
(4.999988633681931 0.0001385936155871624 4.391372088990256e-06)
(5.000211436026928 0.000918306030427791 -0.0003808302903715005)
(5.000136648844618 0.0008068168458180993 0.0004697174170557012)
(4.998389525127685 7.514119894236725e-05 -8.842604424139925e-05)
(4.999928363510443 0.000161527173110041 -1.455038350372989e-05)
(5.000021107003436 4.828727143793339e-05 1.771990841295851e-05)
(5.000217923835391 0.0003424335798662162 5.843507754194337e-05)
(4.999969318231883 0.0001253422349306305 -3.140931686713393e-05)
(5.000153096233376 0.0002431208283745584 6.258597660387151e-05)
(5.000173733618234 0.0001878007253458526 -3.97063036898231e-06)
(5.000031537277962 0.0001451303505694869 -4.851819779973024e-05)
(5.000019706587513 0.0003006868953586128 0.0003972523585239277)
(4.999827564075246 0.000431798609651027 0.0009731715721606938)
(4.999934922124017 0.0003189685264232185 -9.069850494495704e-05)
(5.000158131980354 0.0002274087628814078 2.59549507388091e-05)
(5.000030624365569 0.0009885038028417377 -5.331116943118433e-06)
(5.000267309636991 0.0001831756278830519 -8.650991579414551e-05)
(5.00153708540578 0.0001894798299640852 -1.402636669596565e-05)
(5.000073554193611 5.942159310366214e-05 4.057593982614135e-05)
(5.000041064237121 0.0003971203687013091 -0.007190324109586295)
(5.000133203392974 0.0002795738319896157 5.436819094567536e-05)
(5.000176402172746 0.000141949644580956 6.97809046805541e-05)
(4.999815973678984 0.0003588883119042879 -0.0001351151769052135)
(5.000689563031899 0.001601079076819977 0.0004351923809544022)
(5.000208539800528 0.0001585620076010924 2.281857976106588e-05)
(4.999793879852333 0.0004370302050911201 -9.923826130348028e-05)
(5.000068402848318 0.001028662593360991 0.000375261107261587)
(5.00597205845402 0.008011846694132909 0.002756142486384499)
(4.997834789133531 0.0001633688729339868 0.0001111638927897128)
(5.000389498975444 0.0001846610249760343 0.0002133306084393304)
(4.999760236844072 0.0006233863558871593 -0.0001337850084641003)
(5.001577883743544 -0.0001066205463051375 -0.0001466372799513055)
(5.000208173371171 0.0002850809793669909 4.09042536500511e-06)
(5.000148935679303 3.473672081891721e-05 -0.0001178102961916491)
(5.000101105079702 -2.254854030941723e-05 -4.051026718442224e-05)
(5.000076046114219 0.0001295337369248715 -4.049942161952023e-05)
(5.000115306542153 0.0002069734975979513 3.237849437530579e-05)
(5.000152978722221 0.0002732325398134698 9.854162169930859e-09)
(5.001480199669698 0.0005276804669496808 -0.0001637069402235028)
(5.00024601821279 0.000269264787893408 -4.190065773115557e-05)
(5.000213373981722 0.0001927615468706291 0.0001208756391050576)
(4.999985723911283 9.563068132623422e-05 3.657661895409429e-05)
(5.000105224187458 0.0009403916450655906 1.177526228943813e-05)
(5.0000120980831 8.251306281530449e-05 -2.720691702844883e-05)
(5.000059276604087 0.000181708640190388 8.707903350278128e-05)
(5.000102097935436 -4.23435438351625e-05 -6.979624389820547e-06)
(5.00010246280527 9.239330572730539e-05 9.51109947395985e-05)
(5.0002201203903 0.0002337502064687023 1.573509044847722e-05)
(4.999967779574641 0.00142940343980568 1.349380245973972e-05)