/*--------------------------------*- C++ -*----------------------------------*\
| =========                 |                                                 |
| \\      /  F ield         | OpenFOAM: The Open Source CFD Toolbox           |
|  \\    /   O peration     | Version:  v1906                                 |
|   \\  /    A nd           | Web:      www.OpenFOAM.com                      |
|    \\/     M anipulation  |                                                 |
\*---------------------------------------------------------------------------*/
FoamFile
{
    version     2.0;
    format      ascii;
    class       volVectorField;
    location    "0.3";
    object      vorticity;
}
// * * * * * * * * * * * * * * * * * * * * * * * * * * * * * * * * * * * * * //

dimensions      [0 0 -1 0 0 0 0];


internalField   nonuniform List<vector> 
19632
(
(0.007483953910418116 0.0007524206965850207 -0.0008641729508401621)
(4.728296795148072e-05 9.345868949816056e-06 1.658226811782042e-05)
(3.234386431990312e-05 1.552650812597545e-05 -4.177387917582021e-05)
(-7.233498002538896e-06 2.059059490981785e-05 3.191345402179022e-06)
(6.920789766298946e-05 -5.43839034988334e-05 -8.062165236828056e-05)
(-5.510027917699585e-06 0.0009660628487075716 0.0001427789683550421)
(-0.0001751826558237175 -0.0004576961291757973 -0.0008387705857499822)
(-0.0004742353269076312 0.0005334933592570018 -0.0004879482527464708)
(0.0002197080618215215 -0.0002395575378597096 -0.0007416874913030549)
(-0.0001697269020582521 -0.0007020882182757455 0.0003474559442900129)
(0.0003005247272216475 3.085798340720875e-05 -0.0005819158150995831)
(4.851336091450236e-05 0.0006371519080300905 -1.416736556519786e-05)
(-0.0007299394616248941 0.0001381713515809515 0.0008891188793737242)
(-8.609918488763017e-05 -3.803294796136751e-05 6.196634611690275e-05)
(5.803676245534094e-05 6.523795009119006e-05 5.783316124916756e-05)
(-6.526829640564142e-05 -2.334402264183355e-05 -5.643917416156082e-05)
(-6.996412848643342e-05 -7.238754235695412e-06 6.12517309079876e-06)
(6.210767675369823e-06 -5.73666923493896e-05 -5.255055895652731e-05)
(-8.160334295636101e-07 -3.055102554005515e-06 -6.754072159904178e-06)
(-9.047352404514621e-05 -4.967643268396031e-05 -1.583720405677352e-05)
(-0.0008260988494316871 -0.0002460370745600495 0.0001272497896375894)
(-0.001024837000813041 -0.000298091110578934 0.0009387412233678022)
(0.0008668628819181357 -6.09558108782722e-05 1.891127314879686e-05)
(6.152453931196019e-05 -3.952290605853729e-05 8.950414042575515e-06)
(-0.0002887552185356499 5.164186113237555e-05 3.331224060481312e-05)
(-0.002015928368726995 0.0008725732468669397 0.0004633299805936991)
(0.0002433249976038719 0.0003255483401686992 -2.236958574087269e-05)
(0.0001112313698313784 -5.449687566595223e-05 2.720962338893009e-06)
(-0.0004370899200048671 0.0003295481998949555 3.782601716664203e-05)
(-8.091934938540076e-06 -3.757008908448249e-05 -1.583973167453047e-05)
(-1.557412246684601e-05 -2.954159301877629e-06 -1.215302935139608e-06)
(-0.0001521407622102853 6.303762225043945e-06 -5.781790093957317e-05)
(3.923139925117279e-05 -0.000109581331455728 -9.275919983357256e-06)
(6.76650459289335e-06 9.206678017677802e-07 0.0001400402341589698)
(-1.219433385412392e-05 9.098656326245681e-06 1.998750561324889e-05)
(0.001278487574280218 0.0004975316546550599 -0.0001100409505073684)
(3.791167941079433e-05 -0.0001861477132395248 -0.0002365467722339013)
(0.0007403470148310896 -6.974901613322724e-06 0.0001301583479351208)
(-0.0003977739464016167 0.0004615753377594421 0.0008234727871875711)
(0.0002671666863445215 -2.736757228780788e-05 -2.346558244551217e-05)
(7.395707931726509e-05 -5.704102195588498e-05 -7.373159236519162e-05)
(8.234735969145558e-05 0.0007369657942547684 0.001034305837248816)
(-8.018634044727082e-05 0.0005144598452476491 -0.0005532110073866881)
(5.884693089328402e-05 1.013083219588257e-05 -2.876289562287239e-05)
(3.255356882998656e-06 -5.697896284814384e-06 -3.046113300872894e-05)
(4.965223031579101e-05 -0.0006095404579116212 -0.0005336521815041212)
(-0.002155167841619913 0.0002571611765740808 -0.0006289041405397191)
(0.0001163627458093338 -9.689432218456888e-07 0.0003003064617197272)
(0.0001726675218258553 -0.0001481049278947207 -0.0004080019515560735)
(-2.219821933823255e-05 1.791914909117197e-05 5.984072464770065e-06)
(0.0005654784048666647 -3.60696970377019e-05 9.266847588951666e-05)
(-0.0001973550300210239 -0.0002304591893434525 6.723685987118741e-05)
(0.0001826373843007472 -5.431535364699634e-05 -0.0003794680066642974)
(-0.001842398329216355 -0.0005787545180427101 -0.0004755953370548246)
(-4.151182022271365e-05 -6.219914727997693e-05 0.000107301614944)
(0.00090448134893254 0.0002616097367132074 3.216509179811139e-05)
(-0.0002797484143154559 0.0006027401888364441 7.441867186471029e-05)
(-0.0001402392689082793 -4.871259359981068e-05 8.549321805865833e-05)
(3.171558880701555e-05 -0.001199828241690988 0.001634230560894177)
(0.0001900925922908308 -2.155010586066758e-05 -0.0001944093755211702)
(3.391829484386483e-06 -8.962218753392518e-06 1.030726340663687e-05)
(4.343290260893346e-05 -2.393138805381585e-05 -0.0001066886158567318)
(-2.536117463476126e-05 2.554762960188439e-05 2.613976387489618e-05)
(-4.327447491743169e-05 0.0003194539175755641 -1.482963853372046e-05)
(8.220809719304988e-05 9.98401075885542e-06 0.0001085963175899788)
(-1.388448563266562e-05 6.774654435066355e-06 -1.975979264257917e-06)
(-3.507966420165569e-05 -0.0001577256740314523 -9.077161752790925e-05)
(3.189521347379285e-05 0.0001724875991625207 2.787506895103259e-05)
(-1.702038912011711e-05 0.0003202695489175609 1.294904438724798e-05)
(-0.0002595816016172373 0.001290134334825139 0.00118990383638278)
(1.642461516363431e-06 -2.99586408476501e-06 8.747277785651497e-06)
(-0.0003062171724620127 -0.0002891973805478244 0.0003344739539477982)
(3.378767998144688e-05 0.001593770122623877 -0.0005033487775811198)
(0.0005032374191989764 -0.001094286118828524 0.0005031946121180054)
(-2.064369643366908e-05 -3.363444765282779e-05 3.024105915063815e-05)
(7.812343216592757e-05 -0.0002796059307669319 6.298441251067535e-05)
(0.0002885305335034861 -0.0006124116315473869 -2.240810980457709e-06)
(-0.002601078661324662 -0.004484465379217576 -0.0002380771097039256)
(-5.00646896151078e-05 -7.358053616788678e-05 1.635446344403082e-06)
(0.0001587496802655815 1.699640887343391e-05 -0.0001284850877700961)
(-0.0003957427856100702 0.001613656819315225 0.0002169927964931723)
(0.0001452396243089648 1.713138515710042e-05 6.024314092811942e-06)
(0.000126937005225145 -0.0001870925984109143 -2.86064494156084e-05)
(-0.0002379447161939497 5.039479464004993e-05 3.243727747615007e-05)
(9.637449048955827e-05 0.0001522487081409498 -0.0001674489598821178)
(5.829450515415325e-05 -9.782293306221025e-05 8.016989380961691e-05)
(4.081119179769736e-05 0.0003272344184826027 1.059818483606268e-05)
(-0.0005106511019462229 0.0006144625060678197 -6.694440124883027e-05)
(0.0001070193244359619 9.525776368966377e-06 -0.0002369004136945363)
(9.894519486229215e-05 0.0002433909751811649 4.85553672680373e-07)
(0.001544027495724579 0.001848435865977893 0.0009692548670962987)
(0.001253407940277665 0.0002343430934721873 -0.001011167448449956)
(-0.000936243380278242 0.001458042569526742 -0.001419189168851232)
(-0.0002818373098731067 -0.0001061711816209767 -0.000462697205276287)
(0.0007453266325954005 0.000564914023857303 4.524986325805578e-05)
(-0.0001416850531878078 -0.0002828860205893526 -0.0004874638708111987)
(-6.254918335778588e-06 0.000199218666554997 0.0002921899899465542)
(-0.000494348081125332 -3.505308299170457e-06 -0.0001528398350799422)
(-0.0006713866151302868 -0.001528550185204293 -8.603794829656579e-05)
(-0.0002925542313289589 0.0003050200390697168 1.176451732363026e-05)
(2.082010351376803e-05 -2.658843999626651e-05 1.437086936320096e-05)
(4.512033805406054e-05 0.00027558967860014 -0.0002234382446842575)
(4.35483089610717e-05 -1.699073916396835e-05 -1.917093702787036e-05)
(-3.851447683237986e-05 2.147625767158905e-05 -5.373698183031223e-06)
(0.0002994456714111572 2.09589465107371e-06 -0.0007550688560381604)
(4.508342657361278e-05 3.027148605865105e-05 -0.0001970799795414649)
(2.163678730410544e-06 -1.144167096817267e-05 -1.871245594889941e-05)
(0.0009997489551714098 0.0007614261373583033 6.73423161578368e-05)
(-0.0002217790692672198 -7.728857787437344e-05 0.000153361606830316)
(0.0007513540264134719 4.710497738797059e-05 -0.0001702376798458462)
(7.493511710557898e-05 5.828535209517816e-05 -0.0002195274683557566)
(1.745092741844626e-05 0.0005912577178743064 -0.0006929853991684008)
(-0.0001508935366347837 -0.0002065426421943763 -6.396348996632799e-06)
(0.0007656277055338619 0.0001864554649316508 -0.0001350671853767004)
(-0.0003158374030826205 -0.0003560300630286268 0.0003298397966071484)
(-0.00154396364833585 -0.002862826455081082 0.002878339729709669)
(0.0006123802961298757 -0.0004664075041921966 -0.0001498798237019148)
(-0.0002460195359461413 0.000100151631212905 0.0001525823990796219)
(-0.000144277522414091 0.0006851721502248009 -0.0009281664843290866)
(-0.000592653887076714 7.759602368116627e-05 -0.0009999584200206333)
(-5.751377514268568e-05 0.0004956856975923089 0.0002167375088693417)
(-0.001184512945658396 0.0003642146323661287 6.430528794379355e-06)
(-2.276462106347455e-05 -9.295650155924721e-06 1.152780064846526e-05)
(-0.0005810147573132728 -0.0004816591746359448 0.0006770556569763166)
(0.00033464960666849 -0.0004828698942801982 7.864410152954635e-05)
(-3.917449963751355e-06 -9.115131761852283e-06 3.474455473098796e-05)
(0.00106991327256046 0.0006955097007821978 -0.0005687130882698381)
(1.015870792534284e-05 4.124566239746463e-05 -2.41616164839246e-05)
(1.855515120028199e-05 -1.855560785814711e-05 -3.706202124295281e-05)
(-0.001037907316186373 0.0001665550451064326 -0.0006212363245619888)
(-0.001807726853286386 -0.0009548784824018085 -0.001004013532365331)
(-3.513994486807139e-05 -5.154076489754812e-05 -2.038418583883064e-05)
(-3.735863560081461e-05 -0.0001230857838633938 2.774040683715924e-06)
(-0.0004418359644237817 -1.932236834954059e-05 0.0006359645368710906)
(5.344218555813009e-05 9.400038906238136e-05 -0.0001117448481037146)
(-3.351679055021733e-05 -7.506751786642103e-05 -1.720905174556406e-05)
(-2.135819879297239e-05 1.382253711600164e-05 0.0001993134957144289)
(-1.495440505938379e-05 -0.0002267094924142985 -1.640820382792852e-05)
(-1.485032350990684e-05 9.894735652198037e-06 -1.840510126011703e-05)
(4.974213301068608e-05 -3.16142449674738e-06 -6.776760322398789e-05)
(6.938593722942242e-05 -3.256810996129242e-05 2.524654848330781e-05)
(-0.0003236149123337279 0.0004686705056240547 -0.001078723435594385)
(1.539289372276545e-05 3.051154067854481e-06 -3.917092786972204e-06)
(0.004456180320776809 0.003046545325993066 0.009018264791328875)
(-5.541208195703371e-05 9.588450372493909e-05 0.0004677294787958756)
(-0.001318332584695948 2.217558769570247e-05 -0.0006939997783838655)
(5.469064521392373e-05 -8.158513555258471e-05 -6.269649073101558e-06)
(2.329961941396902e-05 -0.0001111629903370052 5.984745537670872e-05)
(4.194124653992912e-05 -5.51446044032546e-05 3.358836519781688e-05)
(0.0001375861818110185 -8.272283498892146e-05 -1.35806683915837e-05)
(-0.0007345074948883463 -2.705172331880065e-05 -0.0001756497933417289)
(0.0002328253208376032 0.0002691818867369487 -0.000175189554171432)
(-3.439966523895791e-05 -7.956750214873392e-05 5.016373685854857e-05)
(1.598259695804938e-05 8.673797621159897e-06 3.120528614931394e-06)
(-0.009957866774373984 0.000966125343554879 -0.01279857467679909)
(-0.0003628887767277402 0.000224572447353512 -0.0001522748162810128)
(-0.0008478385540694058 0.0003226388016467428 -5.347822534913869e-05)
(-0.0004121607949384416 0.0004354506305073951 0.0004224864704757726)
(0.002960626130571732 0.002994556304699653 -0.001689636045692698)
(-5.84010371191039e-05 1.252712034552939e-05 7.325790777524531e-05)
(0.000573434043690011 0.001205759290068999 -7.617861629685169e-05)
(0.000100826800564511 4.37370750680962e-05 3.051304582253145e-05)
(0.0001997524164774862 -0.0001396140839587054 -0.000134707408167015)
(-0.0002376100496125499 0.0001012269968085839 -1.039018032573136e-05)
(-0.0002699108325773955 -9.890576332542436e-05 0.0006573291235477573)
(0.001420869556247203 -0.0005848120158446988 -0.001005036893010351)
(1.409624313857232e-05 -4.059554432125213e-06 -4.37728330081069e-05)
(0.0001708970231983772 5.973156680669632e-05 -0.0001020076469375145)
(8.721504596381357e-06 1.742986012508241e-05 -2.331161347540505e-05)
(-5.184230812443082e-05 8.282300250747267e-05 0.0001453809613434528)
(0.001311573176656366 -0.0006125871582883866 -7.537105364694368e-05)
(0.0004504875286841136 -3.790417778920497e-06 -0.0003059073283150776)
(3.175967385115396e-05 -8.171905616874065e-05 9.891865740698009e-05)
(-1.282003332349542e-05 -2.11924048750054e-05 0.0008667826179174217)
(0.0001951378471160905 -0.0002348439197897057 -0.0002511489126960777)
(-0.0004169016225128107 0.00156366787267664 -0.0002057615570485042)
(-0.002123121324737793 -0.001469513492927174 -0.001163812372795009)
(4.609375267123525e-05 -5.611816200212959e-05 3.755730615837099e-05)
(0.0009614197243920233 9.53250234793329e-05 0.0004976048036431666)
(0.0001962903151780418 0.0001725633705015826 -3.60402806598856e-05)
(2.424715695124967e-05 1.659418574692458e-05 5.280482039608356e-05)
(-8.619159641559633e-05 -6.166461015152736e-06 3.120743823895565e-05)
(-2.80699234492332e-05 1.20691500336442e-05 -8.49115189677459e-06)
(-0.001542418549860281 0.0005962444391273849 -0.001195992054975119)
(0.0001042426681424006 -2.583697440209997e-05 4.091941409818041e-05)
(-2.008406693651072e-05 1.497007317022704e-05 -9.314617890729743e-06)
(-2.211936470654074e-05 -4.269888653027332e-05 -4.946692139480253e-06)
(-2.673279741008195e-05 1.476839542409651e-05 -5.843586708139174e-05)
(-0.00049956261605767 -0.0001173069908543937 0.0001555392223305266)
(2.678273789570148e-05 -1.218242237901589e-05 -3.435338430751808e-05)
(-0.0002780151449894949 1.391519609936481e-05 0.0006526751855833735)
(3.783505515594304e-05 -1.119446992387365e-05 -0.0003794163596660586)
(-1.22243378191803e-05 -4.655134704978874e-05 1.250016422947562e-05)
(-1.166574350645636e-05 1.124228568554176e-05 -1.804641351582671e-05)
(5.585426125360279e-05 -2.482875458490973e-05 1.258795364941105e-05)
(3.513832719126656e-05 -6.428407902745427e-05 3.435242682694929e-05)
(8.273002773155695e-05 7.247492839439517e-06 -0.0001512834424686834)
(-1.292025288219582e-05 2.27007537440447e-05 -5.921902078578705e-07)
(-0.0007551855942395045 1.620970464924927e-05 0.0006712178605350975)
(4.257556097797597e-05 -4.585694206042657e-05 2.034362108174071e-05)
(1.4906173761439e-05 -1.058154383202681e-05 2.067051907545142e-05)
(1.090546840396071e-05 -1.046001676947344e-05 -2.079732466629765e-05)
(-9.148989208733645e-07 2.175583337560789e-05 -2.316043108005245e-05)
(-1.76819926645647e-05 -0.0002319256263645103 0.0002443394648285554)
(-3.064731441688069e-05 3.131143486229145e-05 0.000133995170228951)
(6.474122795802534e-06 -7.159410638363979e-06 2.091003089721983e-06)
(-0.006584969047791355 0.003638897339247549 -0.001384436623398514)
(-1.297209217907034e-05 -0.0002605297480350091 0.0003659904691320932)
(0.0008097889640806569 -7.879443140322215e-05 -0.0003137650715383195)
(0.0005445537023369498 -0.000232577788023548 0.000249623660344469)
(5.138865339034591e-05 -0.0001009952767270113 -2.69571624402532e-05)
(3.698967690224832e-05 0.002726575076423768 -0.0002341404857822671)
(1.860452755434333e-05 2.590395872846462e-05 -8.204344983594723e-05)
(-8.839744933201768e-06 -1.642277967597257e-05 -0.0002623761766477917)
(-0.0001671347598188626 -0.0001415525904928949 -0.0004376128426045692)
(2.906162454813046e-05 -8.369758588486339e-05 2.810506675799695e-05)
(-4.459228481815274e-06 8.846489222011426e-05 -5.441750803134986e-05)
(1.551863222484123e-05 -1.819705464718725e-06 -2.122437918802305e-05)
(-0.000632253361880477 0.0002949503750120896 -5.642593226713667e-05)
(0.00171146934936818 0.0003696078899832579 0.0001354981382684917)
(4.860422458502254e-05 1.916398524641962e-05 9.697967138082038e-06)
(3.726723679480109e-05 -0.0001195792343393023 4.681318917107423e-06)
(-2.598661435973162e-05 1.773365353859565e-05 -2.350889350692187e-06)
(-0.0002439980471250834 -0.000173489126541215 7.385911979595342e-05)
(5.290952094178568e-05 -0.0001374827741160033 9.385855233259602e-05)
(-7.654920828670264e-06 1.993672028130623e-06 2.341058496763562e-06)
(-6.921728383960094e-05 -0.0002537446996811813 -0.0005732937909749323)
(9.49114395965209e-05 -5.629055096338786e-05 0.0001817588081675285)
(-0.0004496082420544187 -0.000125180633613954 -0.0004664586514657199)
(-0.000115912068960474 2.738022045488244e-05 3.936189173892365e-05)
(-5.203844359386836e-05 2.097881362391343e-05 0.0001612682817130284)
(-7.447845923926511e-05 9.858737082608453e-05 -0.0001395441406074892)
(1.221228086193147e-05 2.336472409312824e-05 1.774519503955654e-05)
(-1.634057013646386e-05 2.84358000624251e-06 1.161285750612526e-07)
(-0.0001191882776977946 -3.838783464545946e-06 2.026662411865954e-05)
(0.0003988257947723227 4.925607896679583e-05 -3.796748480938693e-06)
(-0.0003409512794841624 1.627867792689097e-05 -2.02241493473292e-05)
(-0.0006156538286647557 -0.0004532549001045087 -3.11081218703521e-05)
(4.735029629321211e-06 1.444789400278169e-05 -6.239603166711553e-06)
(-0.0004921878218584723 1.683203887972158e-05 -5.030322973198412e-06)
(6.677048838868786e-05 -1.979188206947822e-05 -5.549813675796245e-05)
(3.817305361874807e-05 -2.104851785506703e-06 -3.931559896737182e-06)
(0.006444345410341323 -0.0009041354419847547 -0.002577331902370491)
(1.367214517519044e-05 3.423704420740667e-05 -2.004796659288203e-06)
(4.479811784476841e-06 6.436104754712127e-05 -0.0002504695903024346)
(-6.17978031261055e-07 8.013844711114037e-06 5.187765065692547e-06)
(6.047609797051157e-05 0.0001045239820107675 0.0001513354057365185)
(-7.072473130259678e-06 -9.076423000897238e-06 1.702101973333363e-05)
(0.0002874076186425391 -0.0006526808574597075 4.873784920762854e-05)
(-2.948405045011328e-06 -0.0001091356102104695 -9.488989557757758e-06)
(0.0002440460008654736 8.397011476082835e-06 -1.339364911580102e-05)
(0.0009862372140148326 0.0002779691024251051 9.96427554614406e-05)
(0.0001085538038812722 -5.154027095363487e-05 1.362397433342177e-05)
(-0.0001214702962741024 1.525220697354231e-05 -6.531745177127978e-05)
(1.16909659426423e-05 -6.877440799430204e-05 7.099996188260624e-05)
(-4.662848234830951e-05 -0.0001024707506070761 -3.612156155530315e-06)
(8.984766899597941e-06 9.902634926547078e-06 -1.21975265462108e-05)
(4.796659648238972e-06 4.103311319655755e-06 -4.206982462343148e-05)
(-0.002353017817094127 -0.0009765797649050288 -3.478610363448882e-05)
(-4.820480010679868e-06 -2.505292724095117e-05 -9.784808933817419e-06)
(5.002227567516097e-05 -7.322140438488895e-05 2.204580435743057e-05)
(0.001376813884328196 -0.001061873921200803 0.002646848743870718)
(2.499164984402126e-05 -1.750245993889851e-05 4.084799647817605e-05)
(0.001348551069890783 -0.0006035681046732903 -0.001073324016715258)
(8.209571866711339e-05 -6.880459840452202e-05 1.018340966170268e-05)
(2.20564101697629e-05 0.0005451620756993232 -3.436054805304343e-05)
(-7.508177606430824e-06 -7.180374830761789e-06 -2.116251416970691e-05)
(0.003642504521958319 -0.001165150919503669 -0.0001281873391968701)
(0.000304280452717657 0.0001241327993194758 0.0001095055762867498)
(-0.0008477774049632933 -0.001105516903721552 0.001664274478393778)
(-8.30846303724915e-05 6.884936234629033e-05 -9.903463040126261e-06)
(0.001623075264287987 -0.0009399871727012812 0.0003602855377482387)
(-9.938686084100761e-05 -1.253644403930456e-06 -0.0001839974380301805)
(0.001297755287109412 -0.003100206951546232 -0.00130942071680541)
(0.0001068852719838288 5.154637511197273e-05 -1.802579129303247e-05)
(-0.0003185847030628756 -0.0001909853406959292 -2.540170076658488e-05)
(2.227063612166118e-05 -1.153934420395471e-05 4.457476457303804e-05)
(5.883022897981737e-06 1.033152724209558e-05 -4.011382174399741e-05)
(0.00123775866602305 -0.0004994255047321433 -7.046087595592249e-05)
(0.001009204538110573 -0.0006465978136629504 -0.0004721393634235307)
(-0.0006700111373088765 0.0005124534495825622 5.135795509405319e-05)
(8.234335595683823e-05 -0.0001082163457214432 -0.0002849249659305582)
(1.314183185531336e-05 2.252085389868221e-06 1.280433921322547e-05)
(-1.870483423833947e-05 -4.367938711042853e-06 2.575669686095282e-05)
(-1.736523676306631e-05 -3.848144488421524e-05 1.612365360210035e-05)
(0.0001260204956143007 5.465220045146092e-06 -1.57840580078632e-05)
(-2.652588481236777e-05 0.0001056830544914761 -6.919060881609807e-05)
(-2.849245300850974e-05 -1.05935290531981e-05 -6.209717866232544e-05)
(-4.010241852625931e-05 0.0002550327832141858 -0.0001831838208541484)
(-1.725483564624696e-05 6.070128799832122e-07 1.865466917346148e-05)
(-0.0001832550308969536 -3.010359502270388e-05 6.392638571814899e-05)
(9.151671386168576e-05 -4.485659521315144e-05 5.276319129862119e-05)
(0.0006333013743138507 0.0002178227132397486 0.000693548677149666)
(0.0001328233245539694 -4.169380107935929e-06 -1.358816793833787e-05)
(-0.0004616887218983347 2.970704806366493e-05 -0.0002209187580629315)
(-3.948181494860019e-05 0.0005113662341586933 -0.0001131529858646374)
(2.180792428342165e-05 2.191096679902552e-05 1.188004414081338e-05)
(-0.0001233155687712673 5.074690447789653e-05 0.0009940563520116925)
(4.754404459165732e-05 -0.0001074352203863555 -3.355797613193222e-05)
(4.208170811030675e-05 -9.298154200575274e-06 -6.697914059328181e-05)
(0.0001581229001738656 0.0005059277513032614 -2.830608399518007e-05)
(0.0002266633068076706 0.0006721805348577093 -0.0001121503965079618)
(7.627963662889525e-05 7.888705862700807e-07 -8.672487919478449e-05)
(-9.444348264149283e-06 2.695772722485072e-06 -2.473762126389929e-05)
(3.51932242883647e-06 -0.0001137203344196985 -0.0001333906448267455)
(-8.868108052371754e-05 6.941166352310514e-05 2.31461366623923e-05)
(1.606227291085519e-05 7.925375769099687e-06 -1.531369586766511e-05)
(1.055383736260056e-05 -4.546589018163817e-05 0.0001495745579377179)
(-0.0001016989855692542 0.000362018688066977 4.327772119495545e-05)
(-2.962174057593941e-05 3.586808451921775e-05 2.533814064718655e-05)
(-2.786535135999079e-05 0.0001100346261799311 -0.0002307632110522845)
(-0.001484071276111353 -0.000485946595304779 0.0007225983936381694)
(-2.635551239325461e-05 1.922893501877026e-05 -4.554427746293285e-06)
(0.001699275645321177 -6.053396502644286e-05 -0.0002755547205497356)
(-0.000684635041858961 -0.0001033483806476066 0.0001773608620319053)
(6.572430627923193e-06 2.582495448916616e-05 2.167579967733227e-06)
(0.000332176817206342 0.0002041533940554016 -5.217297865677129e-05)
(0.001037480650557509 -0.000669003815511378 -0.0002581427274677171)
(0.000241737213298325 0.0004750200743974267 -0.0007906520609154904)
(-4.415163603549026e-05 0.001309630823979656 7.318573383371593e-05)
(0.01867178769608636 -0.008842431792394762 0.004688610299535306)
(0.0003696249984950808 -0.0004706510344607764 0.000947385112921872)
(-5.127268399184107e-05 9.974168792285185e-05 7.550916789929166e-05)
(-8.7023050643375e-05 -0.0002576995754262632 0.0003344549761874844)
(-6.210966743179153e-05 -4.280643535240611e-05 -3.919448659374086e-05)
(0.0001501376526404832 -3.973361496141791e-05 -0.0001154901670954472)
(0.0001082279787940204 -0.0001106003299260504 1.859142438882165e-05)
(0.0001602592870628836 -2.676881674374052e-06 -0.000592230696235959)
(-0.000811824796605193 4.659264253617558e-05 3.959765508405028e-05)
(-0.0001046111398625133 0.0001075164516967608 -7.576307793976419e-05)
(-0.0001183180040596382 -6.191714359280382e-05 -0.000232867456897511)
(-1.318177559019961e-05 1.105480571708544e-05 8.426701486717967e-06)
(0.000266806622175292 -0.000147171555063384 -3.166733300857692e-05)
(-0.0006208265948749662 5.701124853042148e-05 0.0001691870769939134)
(-3.303223977289067e-05 -1.106219585517969e-06 2.504375776961536e-06)
(-0.0002278001908799878 8.073810819357576e-05 0.0003583731711541141)
(-1.1884221758229e-05 -2.581508448971581e-05 -2.051868017661251e-05)
(-0.0001683237403370281 0.001278612171499768 -0.001941421175095451)
(4.907985092757869e-06 -1.506895419709314e-05 -1.415873532748029e-05)
(3.528029702576605e-05 -0.000113835801563384 4.522871449231383e-05)
(-0.0001151708788919028 0.000281937796209472 3.159917036487689e-05)
(-0.0005962145993831233 1.566411483022912e-05 -0.0002747751723984214)
(1.712678379318315e-05 6.620014529850203e-05 -6.359810736804078e-05)
(0.000214410446739301 0.0002322336454943139 0.0006275973491306129)
(3.415883677292841e-05 -7.374412443174677e-05 -4.751082984536566e-05)
(-1.059039318195056e-05 0.001728831136055924 -0.0008143529127103668)
(6.243575622623102e-06 1.885793154738803e-05 8.100337703127393e-06)
(0.0002879993219679027 0.0008425948079172402 -0.0002119508247905666)
(0.0002937566105575873 7.898515873104104e-05 0.0004563719299906694)
(-0.0002917612355252003 1.803671994985904e-05 -0.0003564474351178687)
(-6.905541595810362e-05 -6.448029964579955e-05 -2.081501675919428e-05)
(-0.0002544147558877379 0.001163869190823261 0.0003956427470582545)
(-2.42881437271655e-05 1.242497401135125e-05 -6.05604305677163e-06)
(-2.120496820449943e-05 -1.708171593903669e-05 2.505754460085882e-05)
(0.000184547306254086 -0.0001001182296727853 -2.905418270747961e-05)
(-2.921790292185558e-06 7.266832409665419e-06 -2.999062286955531e-05)
(-1.143225926179299e-05 8.201422382800102e-06 -7.694874651589669e-07)
(1.107793318206319e-05 -3.816736576559195e-05 2.872770455569326e-05)
(-0.0001828721306748607 -6.372431814437764e-05 7.335127396711603e-05)
(-3.777694058366649e-05 -4.595247458663807e-05 -5.536870641388318e-05)
(-0.0001226116279196121 5.530938460686036e-05 -5.747084236701096e-05)
(-2.044446133504256e-05 -7.820274323342772e-09 -3.622005315510998e-06)
(-3.288617459135531e-06 3.077743031955442e-05 -2.746717833019298e-05)
(-0.000270795607026644 1.794782276303104e-05 6.002444765665769e-05)
(-0.0001602669388262402 -2.910329561974543e-05 0.0002340024020342312)
(-1.595763051023466e-05 -4.175002184499777e-05 0.0007912704915172037)
(4.359101239100785e-05 2.624483684307362e-06 -0.0004305482789086635)
(5.189114726729619e-05 -4.244971227926575e-05 -3.461152286015127e-06)
(2.677527190674575e-05 -0.0004730793955988528 9.499399319494505e-06)
(-2.836367352229436e-05 -4.623022212049562e-06 4.389331604245549e-05)
(2.31804376384504e-05 2.981994383698605e-06 5.524540458916586e-05)
(2.119251024292353e-05 2.815566999152456e-06 -1.28669067425784e-05)
(-4.728774838511367e-05 -1.560282673399002e-05 -1.368928246718799e-05)
(-3.843984212869865e-05 -4.063255897708971e-05 1.224077218014656e-05)
(-6.407372657340853e-05 -7.487428266447917e-06 4.467009334374702e-05)
(3.461771939449287e-05 0.000159184609899803 -3.075851288570734e-05)
(-1.107428323652387e-05 2.108824561249203e-06 -5.933400638762914e-05)
(3.368086842355246e-05 -9.909282934897849e-06 1.681498756551363e-05)
(1.675995161545044e-05 -4.209736544516382e-05 9.955608753169041e-06)
(2.207185838145545e-06 -1.517038258002055e-06 1.704764084886027e-05)
(-4.969369999975124e-05 -2.828630931047555e-05 6.39342650678195e-06)
(-4.512760411480583e-05 8.66676506672555e-06 1.609135608831374e-05)
(2.111257032327658e-05 -0.0002764558519350708 -4.424214694175499e-05)
(-1.385444145612869e-05 5.251080624199398e-05 -0.0001011361510315088)
(2.959282433478213e-06 -2.062163808655494e-05 1.068146192786413e-06)
(-0.0002553357300757104 -9.000942097324469e-05 -9.351623370644328e-05)
(0.0001574028504470597 7.089896490458004e-05 -1.632432926863874e-05)
(-3.20691620442539e-05 0.0007164776353587509 -0.0009154402788246237)
(-0.0001039520559070296 -1.649711635848716e-06 -0.0001106445002927182)
(-4.260999718516843e-05 -8.345853476638355e-05 -6.970570687593617e-05)
(2.105674932725329e-05 0.0001033181034686565 8.217482024262121e-05)
(-3.466533510574935e-06 -6.119972084742966e-05 -0.0001833662360569999)
(-0.0001277899706331102 -3.07066126123922e-05 2.212162573332649e-05)
(-0.0004020259558357695 -4.788986278756675e-05 -0.000186604085251954)
(-2.49625251085539e-05 6.184416920788552e-05 8.734821540528736e-05)
(-7.428997494097176e-05 0.0004371972816096017 0.0003645272753000236)
(-3.139286829505935e-05 -0.0006315880857485683 -1.381167307651097e-05)
(-0.0001752742076057775 0.0004425644912673003 -0.0007240037359084433)
(0.0001599528509681022 1.504832599356823e-05 0.0001794945786614126)
(-6.976765315500096e-07 -0.0002568041340906251 -9.768572082038478e-05)
(-6.340885066469655e-05 -3.194798770438109e-05 8.783729872947047e-05)
(-3.42527473300262e-06 1.265466441351229e-05 -9.000869929755072e-06)
(2.462803830109537e-05 -1.993234774530066e-06 1.171944649866664e-05)
(1.84046285965301e-05 6.795011002227679e-06 -1.274870989482124e-05)
(1.52759594208e-05 -0.0001260276328932893 -5.60241387133694e-05)
(2.590292571284925e-05 -1.905114978031841e-05 -1.735744762048122e-08)
(-0.0005555882054025159 0.0004373240580051823 -0.001167256428025178)
(-2.293583233316714e-05 5.125139377081104e-06 -8.23737114338987e-06)
(-3.757651564343902e-05 -8.431929944589977e-05 2.534756008221935e-05)
(0.0002328696822687368 1.128781296700016e-05 -0.0001847522916369489)
(8.171907647694862e-05 -0.0003709891780082246 0.0003025970269033164)
(-2.364669750388493e-05 -3.55468320166448e-05 -2.295848726028799e-05)
(-2.223060823348456e-05 -1.59924375262304e-06 9.146737437933218e-07)
(2.723855267329642e-05 1.844276341175275e-05 2.940762405957708e-05)
(8.852188250850046e-06 -2.131735552454704e-05 6.115844093782313e-06)
(3.197750044477229e-05 -2.279347999006656e-05 1.229063249007206e-05)
(1.932635756078152e-05 5.092552332833984e-05 -1.109766102607058e-05)
(1.621415338389857e-05 1.508294769542749e-05 -3.866589671872e-05)
(-0.0003518035065942672 0.0006043881039756758 -5.654390566271831e-05)
(0.0001007178802374473 -0.0002324126112418986 -0.0001015044202796974)
(-6.181096866597635e-05 -2.026056957847194e-05 6.74329292356152e-05)
(9.207295917389471e-05 -3.822926241326849e-06 8.696755288038191e-05)