/*--------------------------------*- C++ -*----------------------------------*\
| =========                 |                                                 |
| \\      /  F ield         | OpenFOAM: The Open Source CFD Toolbox           |
|  \\    /   O peration     | Version:  v1906                                 |
|   \\  /    A nd           | Web:      www.OpenFOAM.com                      |
|    \\/     M anipulation  |                                                 |
\*---------------------------------------------------------------------------*/
FoamFile
{
    version     2.0;
    format      ascii;
    class       volScalarField;
    location    "0.7";
    object      p;
}
// * * * * * * * * * * * * * * * * * * * * * * * * * * * * * * * * * * * * * //

dimensions      [0 2 -2 0 0 0 0];


internalField   nonuniform List<scalar> 
19631
(
0.03014818569906779
-0.07321185975968698
-0.488649908364671
-0.752147366905897
-0.04041816510175605
-0.4923864009809667
-0.1305620966386946
-0.350690257611871
-0.06372325323031415
-0.1809247075113267
-0.08583568010569703
-0.1382030853971748
-1.322995322118013
-0.09383922174719325
-0.08089796060469512
0.009322042791630972
-0.6931747704821318
-0.07622597562102358
0.03572411176303178
-0.04471374321240519
-0.05845138847187833
-0.05999782374437704
-0.07806594881849278
-0.8136854889913125
-0.1033116392471548
-0.09022494066757179
-0.162223286581588
-0.06349450890073524
-1.908354892750969
-0.1343640570459066
-0.07595344211412987
-0.4667981217205032
0.02361322338470882
-0.1275263959727811
-0.3072990571387917
-0.0875046277158311
-0.2030417430146154
-0.08983379791914718
-0.1398937893026425
-0.1951974742736979
-0.823004867878349
-0.5506486135394079
-0.4054269175806742
-0.3964469859866761
-0.4532380762298782
-0.5264130367263178
-0.02430763438014658
0.1762281750247698
-0.2911422498824223
-0.05290002839258675
-0.01238668766441538
-0.1355416593952535
-0.1848255264351644
-0.161916218011629
-0.0619788071955747
-0.367799034036507
-0.2808303752177433
-0.08809285470998558
-0.1503130146553062
-0.6244698837030784
-1.003841343131439
-0.3704794517395396
-1.061335061534909
-0.4884841830287861
0.162901244934802
0.2027554834681401
-0.1450658227468564
-0.09215729370256501
-0.8569179980265921
0.06808418527675268
-0.7419968857804474
-0.4654535741111384
-0.3198808064536396
-0.0252700379702362
-0.1455848878679833
-0.7790030183240491
-0.1081110896391912
-0.7404501200087144
-1.126611499981061
-0.1259496449636351
-1.469131944207835
-0.2342871688774382
-0.03020442782101303
0.190856038096962
-0.3944764861640037
-0.2472734348219529
-0.4603059328528014
-0.9233687814080608
-0.7199896715325389
-0.5502430646942181
-0.6231338742620013
0.01868844850291758
-0.5103861680118229
-0.711751595338741
-0.5162468387745005
-0.5295618299199739
-0.2610299015802931
-0.07918852964175027
-0.6291427801705103
-0.2138543712131844
-0.08120999394040121
-1.328019253346777
-0.08925708814337337
-1.750605007793099
-0.5092995650542453
-0.6984314007405628
-0.1564735772815127
-0.2041080276162554
-0.1749866418615752
-0.03281532222919942
-0.3679282565706036
-1.178999407326939
-0.1463547344809405
-0.2404993720778624
0.4452841855460959
-0.932820400771427
-0.2834876229585729
-0.1972834282149037
-1.655066232612951
-0.03005364444423533
0.2124690129028085
-0.09215065162147064
-0.1247349834039948
-0.2073677465405163
-0.2620822670061553
-0.0901166837903415
-0.09608181163221646
-0.111212491977094
-0.07661588897244083
-0.1145806188338047
0.1872011690978019
-0.5100910602873744
-2.25285482708817
-0.8077341649895741
-0.151534671945852
-0.127783874355275
-0.2039881827972179
-0.07231669697546231
-0.08783159609288535
-0.2135460858256925
-0.06720111157159532
0.2044755826332685
-0.1717711969143086
-0.422442389704369
-0.09758609788340325
-0.2800147080900756
-0.1821753558309105
-0.09192644784537471
-1.154456691756576
-0.7167553828509082
-0.03382406243998491
-0.1319671703115862
-0.1132646183753985
-0.1232532198589672
-0.04660326071959509
-0.1512221805162377
-0.3982474663703202
-0.1999863664427148
-0.3165925482683617
-0.1415139535942416
0.00122731528196548
-0.05453291837053802
-0.8453499538856265
-0.06930290161096304
-0.1003361273381163
-0.1026334769258561
-0.08280258962620142
-0.08187333944679202
-0.09708354803624961
-0.9184183554958093
-0.2832958042619638
-0.9228579705113297
-0.3851442348938877
0.007622567525768043
-0.1795880628320984
-0.4273882383822534
-0.07003148820736388
-0.6971523974106207
-0.193625699187372
0.05451410220277786
-0.03868682071654456
-0.04715997577012618
-0.08282590731387691
-0.07607357329297766
-0.5404085116597197
-0.2912975557975187
0.03442170222543455
-0.005370307582836142
-0.2648928938797585
-0.1878914194638343
-0.8544075622613381
-0.3370962253475611
-0.2302614970406008
-0.03931487607898383
-0.7905332081671503
-0.6479146008553528
-0.1444052562398547
-0.4968031828851363
0.480609512124902
-0.2541113316230857
-0.3421001815600527
0.1582880948142458
-0.5660732420179211
0.1463339579292075
-0.1260931843574765
-0.06709950756439852
-0.03943621022013823
-0.4009298780991352
-0.09421348949528811
-0.2865478079992521
-0.1982899424808873
-0.2308930953647606
-0.337548787343989
-0.1715677082454539
-0.2730012068398896
-0.5758293951560206
-0.3553011294836366
-0.5930255701545866
-0.09490337977235844
-0.1336298741331109
-0.04866396236807357
-0.4314364103051768
-0.1384318874911077
0.4941332448155353
-0.4281802348061771
-1.149278380613487
-0.3423403219508606
-0.2865366510118755
-0.7149619414816
0.07868926153866829
-0.7615028622870783
-0.4084296549526255
-0.6704710366010933
-0.7945968276950156
0.1010084714900237
-0.07257751295739991
-0.2226807512600006
-0.5183111730470976
0.2190452241164346
-0.4872111852168504
-0.0969774224062635
-0.1860324592640717
0.1287165699319047
-0.01556187747016106
-0.9600567173652894
-1.073581056829282
-0.08102575003473794
-0.4631750934153568
-1.018226236395365
-1.462608180113457
0.03680446879275722
-0.4733168654927126
-0.7890640229754029
-0.6286202025380221
-1.068575373734725
-0.4299771048440432
-0.1819073712774869
-0.7265274922251983
-0.004561533914833189
0.02868569664100064
-0.04785205016202646
-0.5517432532197566
-0.4825280178799346
-0.5329066228058765
-0.08760524487511261
-0.1288159629156337
0.2116776120438939
-0.460011255074408
-0.9107476235398334
-0.6039218386399776
-0.4181033068828201
-0.3280018088772989
0.04228783884595685
-0.02816675356296898
0.1089042842343363
-0.3547303292211575
-0.2618680022358602
-0.4439716724835632
-0.346898046407161
0.1770476087160231
-1.153556339332377
-0.5260014874080364
-0.4283680329364679
-0.2941069084430931
-0.956120978995697
-0.4035940827929062
-0.01739539539070306
-0.5183694188136589
-0.3199511636114665
-0.2862283634050293
-0.279957975073535
-0.3974667018120463
0.08525933461356661
-0.1039733538297192
0.002038197283156934
-1.237092296502843
-0.8673979864638957
-0.3297048333295043
-0.6145258145095527
-0.6419624449365655
-0.4465281714142876
0.5265219150197079
-0.08025874873681683
-0.546898363922134
-0.8998105945019857
-0.1635568349969416
-3.136615073814123
0.01101033488717515
-0.04808217803277719
-0.1667359035573515
0.0009613642497218987
-0.1317247341268338
-1.152770764514865
-0.2156492367733182
-0.09668436064665668
-0.03428831562873945
-0.05422937916268546
-0.05401577532151343
-0.3107455461654172
-0.04984195103242543
-0.5855884472813346
-1.404364165178873
-0.4885146889357198
-0.08632051271748874
-0.03300228067381901
0.7135146235674313
-0.1131938849255554
-1.258478080176902
-0.3914633396218644
-0.6336359851395396
0.1068368022229299
-0.1669671331564259
0.05280222844406948
0.08748439624900507
-0.5789240842385129
-0.06524798895559611
-1.013086551877982
-0.2761757517862848
-0.08077672736013854
-0.1936333104356971
-0.108161754225361
-0.4458244560715531
-0.2203935315242979
-1.390931571309626
-0.0469214785424833
-0.624281969513897
-0.07463737115553422
0.2971811309150258
-0.2156159975905713
-0.2872622416964543
-0.3273529448885702
-0.3558622471126055
0.09652853730290091
-0.7577797556299223
-0.407838139065515
0.06768268616203013
-0.0614818293399677
-0.9096630871459568
-0.5058062456526321
-0.1866922352410504
-0.2755546781660486
-0.5453262729106256
0.1740770262635737
0.009865301237654401
0.5006347393022589
-0.2189171927607689
-0.07091961227206001
-0.1665307455096216
-0.301846211987662
-0.1837061026904366
-0.03858602323702386
-0.0494505223837579
-0.2565710876094316
0.04077026420804553
-0.1823500978721318
-0.0144913542158949
-0.03439975263487117
-0.08577975310374115
-0.2426338165276059
-0.08781313317176707
-0.6886599396028188
-0.0761001368811358
-0.09520413483448112
-0.0583958769047483
-0.9386033224251924
-0.7023801490367196
-0.05506435575450264
0.07786178849384391
0.02260864386281413
-1.680833311189569
-0.03174501973144032
0.06911712003333739
-0.5895942532326479
-0.5337056547245023
-0.2515436357412916
0.05339119523255399
0.01793382115587543
0.6333991293566735
-0.5045482231579598
-0.3057673364505888
-0.5853383128289121
-0.505791127373228
0.0314621571489194
-0.9441033914569245
-0.4016596917816045
-1.805038973804015
-0.6150445117341038
-0.2032195462566517
-0.6193189437087694
-0.2857960513037058
-1.125145015993014
-0.7646632866758345
0.09807415776240164
-0.6787195682646781
-0.3412180377346279
-0.3336134153656435
-0.3916477949528768
-0.2697915663617057
0.2226713982325354
-0.8787638161625921
0.06897018372088118
-0.1423720589527127
0.549240250418918
-1.449096519954856
0.3035226447185116
-0.2374271425419658
-0.5048541790062608
-0.1654138530171835
-0.1011023706397067
-0.1791122203729684
-0.01890553829217248
-0.9439860884995434
-0.7481496436777918
-0.1514366667338989
0.01476817924458625
-0.06917162817317135
-0.04980498319781131
-1.861080591710224
-0.3216929546872911
0.119798291586989
-0.0569871772006783
-0.1965190521409032
0.08093200166842296
-0.7303186498659082
-0.04571271017492904
-0.7540173103244324
-0.03475996531502198
-1.481396487277477
-0.8478975873402147
-0.2380933155397698
-0.3507341431362261
-0.3644395084492638
-1.239047141275236
-0.888969171491687
-0.02908757294516571
-0.02552341071652101
-0.09036579027037056
-0.26810227565069
-0.2678008240836238
-0.1176285894375553
-0.09506872006159839
-0.1254506881530633
-0.3271142058443405
-0.05765394086131079
-0.002828472720055052
-0.2238498432701253
-0.3968010064702501
-1.450598053401477
0.04592692165127488
0.07470188752323659
-1.63510585552129
-0.4714429751158815
-0.06526739804364118
-0.02453481298532586
-0.2062661476138791
-0.3210969204974036
-0.08601118333640212
-0.1716732945738778
-1.268234713817588
-0.5171033864181601
-0.4891049793466994
-0.7427139810860846
-0.06607191565465939
-0.498460149074199
-0.3164333381588667
-0.3847236297125455
-0.04870115970433635
-0.3296016349172715
0.2603886107149675
-0.1135434429466485
0.08360018476633445
-0.55885030485258
-0.03048890224504045
-0.01811377809153119
-0.5571090087466859
-0.03719071483531249
-0.3621913464731011
-0.8168931945381781
-0.780693883609741
-0.7530372124803053
-0.1342095279384303
-0.1407849272572225
-0.4575507513544367
-0.0489558581681677
-0.008301267113263198
-0.09557735623050644
0.4815978859373901
-0.01825477475189271
-0.04858535264560224
-0.06726215813920275
-0.7920804004659323
-0.1232757432413008
-0.5237973343272837
-0.1265698287764802
-0.07006371270851515
-0.06266777797385731
0.0640808395896077
-0.03876734732854861
-0.6859852613557162
-0.7245928521990178
-0.8832403305079852
-0.57413049438435
-1.038744291778219
-0.1914065763662838
0.08657148446895395
0.04848425221258734
-0.07248331434036941
-0.7705670794960517
-1.001293382148119
-0.06171044918364434
-0.04738558827708304
-0.06044709872298479
-0.06829046207389712
-0.06490064292363497
-0.08636062305862575
-0.04749241781377808
-0.2248464300216384
-0.7818990577287726
-0.1849540812216695
-0.1655599032710348
-0.4466022786362492
-0.2674032690777365
-0.1931646283311472
0.01636097881726893
-0.1624234323692524
-0.1669236512173358
-0.09978384900466468
-1.163410410607348
-0.4253417949545572
-0.1572681299451241
-0.4253485172918286
-0.2690270271973613
-0.8123360830732579
-0.4869638582379963
-0.444911129472835
-0.06292167147528925
-1.386802840061429
-0.6155338423905704
-0.2514838149006867
-0.4930349219467263
-0.1660090902405517
-0.2103576525313157
0.1693963545312492
-0.4407906044468937
-0.2475323841353644
-0.3283218016767051
-0.3408655885286846
-2.29690727099203
-0.3755786467100269
-0.4134930402468022
-0.3888879775026382
-0.5950205947934836
-0.1889278738308222
-0.5441423736400736
-0.4974933712761527
0.06671754686087564
-0.3394575561349988
-0.03601382379096847
-1.240684044768526
-0.5714027912692966
0.09100256320540756
-1.335245417378486
0.0983890106008346
-0.5634286504687085
-0.4381586161926529
-0.4037431364893471
-0.6648327333412327
-0.3676786190236087
-0.3150943499082721
-0.2627311646889997
-0.1615278501967213
-0.1587973624719062
0.1800586172855968
-0.5958877617716878
-1.29526312801107
-0.198648222412845
-0.3119893441058396
-0.412592195525909
-0.3204856990784913
-0.4086008030713196
-0.02762929038727783
-0.3138312638095294
-1.491891508548624
-1.506706891754169
-0.03511334885899524
-0.3519779439389242
0.007152555632328038
-0.2111119555239831
-0.06751454271898479
-0.2429144136910875
-0.9600667968955783
-0.4795902289915356
-0.4035109134079426
-0.07130020575753629
-0.3388647061370881
-0.2302388557850128
-0.5931170384114763
-0.1456295996112632
-0.6955381793616767
-0.6915354175423183
-0.6160089265485112
-0.4606998862430227
-0.04950833067320835
-0.1231633840858861
-1.575270372471708
-0.3752150503642153
-0.5852571428367893
-0.12424928184444
-0.0992324923077619
-0.1282939674570915
-0.5849298504318793
-0.8631382432017112
-0.03162485508311991
-1.455523207568524
-0.3346056003999875
-1.264556602166332
-1.789673373832097
-0.4810051897259111
-0.2552404265832812
-0.2653538056454362
-0.271285348928984
-1.386747254956595
-1.417469837366143
-1.862724215724551
-1.361472155786039
-1.517574198948305
-0.5797910111782958
-0.5569263613595326
-0.3965440243226483
-0.8406408882706523
-0.9930163411110211
-0.4086362395905782
-0.4136278297749164
-0.2943047213398636
-0.5540975430911943
-0.3285284238305973
0.02844161870022248
-0.2783909734024136
-0.7035590879179461
-0.3108222801156876
-0.2251502900369791
-0.03521412440064105
-0.3922795900615462
-0.6155134668618577
-0.4616791368295115
-0.5957485319135029
-0.9330825127521531
-0.9307506706282467
-0.1949233369236744
-1.546161219878385
-0.095913411690907
-1.245263743978517
0.9120994046619322
0.7409746738720537
-0.2150717700481134
-0.5790172404152873
-0.6496652049264318
-0.2189214871417597
-0.6663673753415122
-0.5442214408562872
-1.47552447069484
-0.3636936280845388
-0.5528404274049559
-0.5911261286828913
-0.5212627005541909
-0.5042464665464612
-0.1929330502600808
-0.8233011404553385
-0.6973820541459251
0.02128265572848463
-0.7023731319820348
-0.4900998731200339
-0.3055273142663855
0.1541296255944891
-0.7072374326046055
-0.6026016412002556
-0.6141597950659494
-0.7583096955224243
-0.5170188599730038
-0.5274001836319967
0.04323484994574931
-0.4130790174127992
-0.2486737082608589
-1.306202892681221
-0.4646064899850045
-0.3430319547447626
-0.963264038025005
-0.4755171121480268
-0.2575286333380246
-0.3150170358860289
-0.8927899271749771
0.2514556289288266
-0.8507498751939686
-0.7604962490582969
-0.7272869449246895
-0.4684049782039832
-0.7838353831583182
-0.876837063504874
-0.1672530494177837
-0.6323686280446662
-0.6368288694476566
-0.2970542124542777
-0.7524933055471482
-0.8643658047577438
-0.4896700363448443
-1.30427215717572
-0.4831227632103326
-0.8243102515589675
-0.4428971200895704
-0.149441366780473
-0.05362930964289529
0.3937653762092528
-0.4926313660120212
-0.5729758500482438
-0.3649436737163202
-0.6241149587823041
-0.8697536246916111
-0.1935357337823703
-0.2098521678567554
-1.054549516411377
-0.03193346427467476
-0.563513622541494
-1.104072874253489
-0.3063077657037698
-0.3100482862278311
-0.3213552117630001
-0.3215788481121881
-0.342461646898253
-0.2925581663330947
-0.5769465167809275
-0.1092178658122299
-0.8110322249690474
-0.2766933089299107
-0.01921670345995097
-0.634177893160107
0.03671292296823114
-0.4126110487817679
-0.1882404183898141
-0.7103863615310042
-0.3593493286052867
-0.454336082914697
-1.688118390760989
-1.127973493691492
-0.2960205278013762
-0.6328845254611551
-0.3675889075379966
-0.440724527238614
-0.5953532654278052
-0.352968113823832
-0.2458372221981427
-0.7337015149213326
-0.02175450687077581
-0.05770128060289343
-0.4437573908095283
-0.1731619607006426
-0.1564531496934124
0.577920249659007
-0.106668593387628
0.1234128381125459
-0.05858803309816004
-0.8374681717052337
0.2369696557536578
-1.279486680209009
-2.384484762917681
-0.1450359821958749
-0.08626866598253942
-1.583742907410159
-1.17631898729151
-0.2249330892272516
-0.3642846993030021
-0.2337421326608974
-0.2629737904690422
-0.1079044556623837
-0.3925136040522422
-0.7182440531211632
-0.3348057226522292
-0.1211232474709608
-0.4730732474178991
-0.1529326686063892
-0.6894857030185171
-0.6051277071830033
-0.926005372351935
-0.5254974636415168
-1.61407713297429
-1.043006365297748
-0.7952058049305197
-0.7557756726685272
-0.6487101871087395
-0.5034157664785582
-0.9948225848912359
-0.07096671431195534
-0.3451786159896024
-0.06754501402469729
-0.1442150185490002
-0.4519959338076463
-0.2934478899051811
-0.7171193272533767
-0.3732662491216121
-0.4270221415216035
-0.3028868833927253
-0.4318395648718519
-0.5308644997265526
-0.5507862414363708
-0.4728832881547981
-0.1859663127957328
-1.292204252056663
0.3464640042564383
-0.1585206448892675
-1.463926673926343
-1.000416977063895
-2.293624950771189
-0.6338175187872775
0.02901192806229766
-0.5507836251108084
-0.1146874131892767
-0.004195442979567979
-0.3361331565847567
-0.5876407916344097
-0.08030582919606633
0.05306290949746431
-0.3111593438031813
-0.6399282635385323
-0.9264225881701982
-0.2686994752113591
-0.4226820910338937
0.131426213921168
-0.903563009979462
-0.4991138731758034
-0.1046457433780654
-0.09528639117588349
-0.3726416353892489
-0.8565290733565818
-0.2382693130578784
-0.3422298882457808
-0.4350567668166648
-0.03080326926143892
-0.2012312773115824
-0.4107383814056143
-0.3392764970713663
-0.2895780229094096
-0.03494324696709589
-0.2910494518600155
-0.7625046303636331
-0.2826500589165694
-0.7207847368365761
-0.3099427078671447
-0.3199415516099548
0.00775753710813407
-0.7721425248803808
-0.5860529151949287
-0.5022501073002509
-0.03548568869499805
-0.7677599751869228
-0.4373395335220778
-0.5995175366429759
-0.2481973535705593
0.02171753102981517
-0.6784603702007467
-0.384090214033535
-0.5070893592868034
-0.4586810278655581
-1.249979874315345
-0.1342621995824119
-0.9270469283042194
-0.01498952992084671
0.06647049918044244
-0.8410350483716906
-0.2147621853738138
0.0554543272083932
-0.5448491464423102
-0.8409972205622639
-0.3478652353623704
-0.2315749825413411
-0.2305485975771481
-0.5577976126354625
-1.485168852852768
-0.6251714926987419
-0.263473116695023
-0.9271242175099524
-0.5383738442399422
-0.6671701312655361
-0.6648984591639534
-0.4419348239076228
0.817782669075645
0.01622953708578585
-0.4292722556103252
-0.2252600469911656
0.2025747857153698
-0.7650937182345406
-0.4796057555964778
-0.6654503335671226
0.2503148009107885
-1.219246051593954
-0.4558480507190205
-0.4897064466088282
-0.6988941215386044
-0.741829890294218
-0.4101827751705466
-0.3051977934568295
-0.4592901577228976
-0.2017088687832323
-0.6386274109175281
-0.1736269032845956
-0.7521855041832466
-0.4693644905310703
-0.8381348322800252
-0.2498280314282449
-0.7825660135441397
-0.6098178782652822
-1.28846179452913
-0.2069027487077433
-0.4485905736263669
-0.452844794619726
-0.3757494030745088
-1.216645134127775
-0.8132580749367303
-0.5074107646574497
0.5400159046498757
-0.7949910065034951
-0.9749964056096485
-0.6001668926252497
1.845280448829756
-0.3776968165231371
-0.4674431838877945
-0.4251342087333371
-0.3856888493888372
-0.6892449955776186
-0.3627436224611016
-0.4119546301123017
-1.370522107913467
-0.4190899303714663
-0.03931936853422158
-0.06678461471273506
-0.1034670134682662
-0.05557410450234108
-0.2845878217863418
-1.280002548462096
-1.787934923362632
-2.554794869614491
-0.4106025408007887
-0.1197770473545512
-0.3072483164989844
-0.4694327915586297
-0.1742430268324145
-0.2045174862207138
-1.116027201992484
-0.3977880817397267
-0.3767553853546901
-0.3973335462519796
-0.9382075952470372
-3.00550464192953
0.004647218521629573
-0.7570719265556689
-0.9032951058373774
-1.449392930634129
0.5369334557102701
-0.5877914224369196
-0.1257332109954862
-0.6416664705476771
0.02237411693524232
-0.2774553131255343
-0.01625839964373659
-0.8779826865971708
-0.3172833208560612
-0.3178064739662851
-1.033897445430254
-0.1495701432378006
-0.4832492041822542
-0.5078115659072585
-0.2270154020740167
-0.3636649389064734
-0.1923763099066715
-0.3191942627110255
-0.4651188133755051
-0.7083801982063731
-0.5626696464748816
-0.5148660718844784
2.166494802609236
-0.4169442162193599
-4.0543941027512
0.05054762522796982
-0.7299957374977141
-0.5122104623181651
-0.08714359761978714
-0.506699143658691
-0.9035622170374302
-0.06961278924669581
-0.1585601945597558
-1.280953697913713
-0.5190371926859613
-0.07728330447048362
-0.06145621770776136
-0.06867138454416077
-0.1743897745474029
-0.6767023353348783
-0.219034401645366
-0.1192038903659927
-0.1250942522560132
-0.08423835488633584
-0.4975598553081197
-0.3498104670045407
-0.08624716148070062
0.06629613655749464
-0.2372311434274439
-0.03752527547097782
-0.1331147450321228
-1.156676230629426
-0.1615048695259377
-0.3817307821854621
-0.07581444821848823
0.02898493736776524
-0.2128633673151307
-0.06390723554751768
-0.0518050625221503
-0.3603707825452439
-0.1366369017197979
-0.07358628082011308
-0.1021167265214293
-0.6276041542735598
-0.2157202273248595
-0.5231565504198372
-0.03091764508865853
-0.3729128849389287
-0.2791717405805089
0.4201212325004456
-0.1613359735147224
-0.05799370869679583
-0.3345856921788529
-0.06565119914242118
-0.4777168303563234
-1.380593930547407
-0.5915778395187454
-0.5830353192453914
-0.5163381753946141
-0.1140244399726968
-0.1955524711958914
-0.3528324382154309
-0.9547871120877105
-0.66086092494968
-0.312499749032653
-0.2955655145055305
-0.5326861614663896
-0.3711233185296204
-2.093279122811817
-1.287182275109141
-0.3200181134770478
-0.2703332165138882
-0.1101977770400919
-0.7583525634720414
-0.1615619849457334
-1.15982336764303
-0.1628490800673789
-1.139464152931288
-0.8546470697269993
-0.2360975654485234
0.4588654720623301
-0.6094182872088911
-0.2780803327132492
-0.5291600760430225
-0.01189630439527549
-3.197794439879474
-1.50177843002833
-0.1808383526955166
-0.732971867224948
-0.1818444775895357
-0.7361681121308294
-0.6100305782334658
-0.5490075840821819
0.04472432868174005
0.4511970138923042
0.009202785659688106
-0.1235389097450256
-0.1074922193029921
-0.219322555269672
0.170180290944537
-0.06972281853536112
-0.6063036760162122
0.615560041601409
-0.2786205398184102
0.1954448470137627
-0.7747328561537844
-0.4248235976674353
-0.5324906315318348
-0.4608325338538166
-0.6026714558339474
-0.2440373804722195
-1.002557207855818
-0.6455247603693132
-1.54215405734262
-0.1154233221580309
-0.1533918463031302
-0.2256654694679951
-0.2865084155382392
-0.06442619661711561
-0.6246670621538709
-0.1110580608734654
-0.7155069651103899
-1.057618468274082
-0.1149082328894335
-1.313478107424555
-0.2677544699774693
-0.7115325859546774
0.002413623998430346
-0.1775967905560609
-0.5579031963920404
-1.640578050396321
-0.1078377562083119
-0.1095300250490824
-2.062360225181067
-0.1938927675708331
-0.4418875585004168
-0.8652443297770234
-0.3632406307918468
-0.9992327340756341
-0.6689860221923294
-0.1391226687089594
-0.01261685401665802
-0.6114821215103169
-1.024918071285268
-0.7822335005060144
-0.6090406310081331
-0.02051786011546028
-1.619450423956652
-0.6395062640120973
-2.373933619416386
-0.6054076204459558
-0.6713626488420014
-0.815551355235326
-0.5463456176399925
-0.3777399303757059
-0.05287807847294009
-0.9374634596892601
0.008225226027013664
-0.6796550201895781
-0.08865232171017572
-0.06190386366205649
-0.07924077820419642
-0.04837538748258201
-1.449440148244471
-0.07176555825896649
-0.1661699786042294
-0.8728335604479746
-0.04919489912838022
-1.168406283896685
0.2323463194899349
-1.137309211447164
-0.05318476832062755
-0.1856446702898775
-0.0681936182772859
-1.318381215787036
-0.04488635865286382
-1.917501462261494
-0.4733310243163096
-0.2991565339101644
-0.115247678275537
0.06929731285376763
-0.0436567619832105
-0.2213804757532263
-0.2967450854736278
-0.6470198826939134
-0.5581539358717125
-0.725722594172551
-0.1337837787957221
-0.4365801523186484
-0.6753880854931558
-0.07911341799907506
-1.381168389382859
-1.468047875279405
-0.2758217653017624
0.1251787580489769
-0.7197010508431018
-2.47352578548078
-2.113570649147373
-1.414064500032
-0.3318389043628293
-0.1774095645051583
-0.06866219967613127
0.3056833651846652
0.004924146567301992
-0.4562618697220483
-0.06618452554287313
-0.5421699709523458
-0.2148806374039469
-0.05351891070788319
-0.4579576676646726
-0.05849599676458227
-0.5063648930414708
-1.245134138206397
-0.07442393821720303
-0.4104837589756782
-0.2316830654470285
-0.8210135102927175
-0.1085688846850765
-0.1771379629080059
-2.026699432727015
-0.5080471554449677
-0.7905373084054724
-0.6077039562134525
-0.1483456705033026
-0.2197764040511167
-0.8579554478400582
-0.3825159535346146
-0.1221469159464522
-0.05871036143179331
-0.05796641611657113
-0.3205092862519958
-0.2037104161761074
-0.04153447462576824
-0.4301641351412052
-0.3216036622993297
-0.6203690359777829
-0.02817919126616142
-1.633478860406264
-0.07652131860952607
-0.4258355733073129
0.3185012687369485
-0.03266142700803257
-0.206207784470482
-1.568682270906755
-0.170336556654432
-0.9405989477827571
-1.349725626050062
-2.718095038106937
-0.4938438717438318
-0.1266513438779701
-0.5921895064739459
-0.2570419604352519
-0.2446358629751114
-0.1266257610867734
-0.05011739448611362
-0.09212691907007406
-0.7999437006452844
-0.4712603180156364
-0.2109270178673302
-0.3593313857376807
-0.0882016012201713
-1.433082786939651
-3.415509586412911
-1.283671086024457
-1.181057640146165
-0.3264319784687379
-0.3772358079274507
-0.2735668867376219
0.0001405264372541086
-0.2928488919627759
-0.4615935975511474
-0.1435723676897278
-1.124405944651244
-1.629678005017369
-0.1994553054420852
-0.02732361794286436
-0.3213926442911371
-0.09980729110888528
-0.2574836814638042
-1.00215259505496
0.2541079973628241
-0.6171852318805184
-1.273460762715664
-0.411503861595205
-1.338606656210063
-0.8072259050633669
1.920351303197009
-0.4432134822836443
-0.6159543098269469
-0.1954713880805535
0.202824523442799
-0.4281879470269568
-0.2402401524401565
-0.2575080884099759
-0.1683632307087775
-0.1484097848383876
-0.8483493505553598
-0.2506597138620805
-0.551495578296217
-0.05040255290541762
-0.5594106138419028
-0.9465558134464871
-0.1963838586121453
-0.4911926460641236
-1.787322980600035
-0.06932805915567276
-1.014945739482889
-0.1265437114541563
-1.404775004423362
-0.5540736977946412
-0.4896275359001295
0.1587337997763129
-0.6239564994833749
0.4035532296881171
-0.1600668282856665
0.3022347892205414
-0.3054641977595334
0.07635321576706773
-0.2004296445324519
-0.3157046453024295
-0.530666625636467
-0.1915645728728006
-1.649964874595505
-0.258617699297238
-0.3851738454487265
-0.09052391650941956
-0.3136735948062193
0.04574196252416674
-0.3330535492630453
0.1091786371594602
-0.445053481223012
-0.1775000282928672
-1.8359626138677
-1.783671504094946
-0.06402205156075866
-0.2508528212944911
-0.3618239981654063
-0.1291388805004069
-0.6036559565941928
-1.52427887558982
0.02003490680053502
0.1391190528583812
-0.004080189799128844
-0.24767961807474
-0.1375536429857938
0.3377383039759799
-0.4862543254769543
-0.3387838531940337
-0.6432399212155996
0.2654378847018816
-0.6677571096125607
-0.1021702314174812
-1.361179614735415
0.04761166128763442
-0.1400989042149585
-0.1975991368234243
-0.07619011352242376
-0.1222423475029185
0.05974576768319835
-0.4226442321672541
0.3900087074197159
-1.226065711538915
-0.5123928701343378
-0.7258274831696558
-0.8178388249083264
-0.2098247374579422
-0.7648645887818779
-0.05785157202969497
-0.06010554206958328
-0.2717020434113182
0.1371590244560485
-0.05845661537953126
-0.4978589120059869
-0.04955809796719705
0.1085418712246886
-0.04442548847295336
-0.6921009586294081
-0.7728969838492252
-0.05232505740143413
-0.1399364412148129
-0.2168521353177502
-1.495010762626545
-0.003586722064202535
-0.4466950598063755
0.3451466916415055
-0.09596375837833034
-0.1205442962863821
-0.2597619557337714
-0.07594195114947526
-0.3463806604707221
-0.08634087170128886
-1.334568929860345
-0.272608622811074
-0.05705661168229927
0.09234201833739819
-0.6430152829539476
-0.1172852596663362
-1.032604615777055
-0.7695756843385593
-0.7957350991749111
-0.1154962878119652
-0.4284475343320174
0.2618072455768358
-0.09031647383507782
-0.8434619819329701
-0.1131084513886348
-1.352875453544504
-0.3192058623261565
-0.03303786032945899
-0.4292078551116227
-0.08282555947088473
-0.1357663126575018
-0.142091573276199
-0.06785868389888744
-0.7297745701346929
-0.165340305307662
-0.8190223647499273
0.05334559452368572
-0.5846954954115137
-0.09113014986770818
-0.1916080925358235
0.7368640615158921
-0.9905826479991729
-0.2947131877331264
-0.1423865875570468
-0.3254565474781997
-0.01613809969137446
-0.107992544240389
-0.1576134812953673
-0.6301581106012787
-0.2274257728376148
-0.2115482096782828
-0.1767487298946344
0.3646444791392287
-0.9162780806441038
-1.660724962176073
-0.8593945701512052
-0.04803060835346398
-1.481758313037737
-0.9049126394450209
-0.8939359483711342
-0.1798480802100736
-0.7932186975955842
-0.1085417502558573
-0.7350280993687235
-1.029963360943225
-0.01075431287429306
-0.9786630861443049
-0.03529308500679441
-0.9356997482868973
-0.04304322786901269
-1.49955308632721
-0.7550945951948198
-0.8151021644011651
0.01611377196795456
-0.06136329151869849
-0.01965017028613538
-0.09850239933450862
-0.5123434653016814
-1.108294526899546
-0.3584667211449235
0.739768405365588
-0.6329790664835684
-0.4247238671344134
-0.8830985825775042
-0.6134010960032329
0.2384409346679705