/*--------------------------------*- C++ -*----------------------------------*\
| =========                 |                                                 |
| \\      /  F ield         | OpenFOAM: The Open Source CFD Toolbox           |
|  \\    /   O peration     | Version:  v1906                                 |
|   \\  /    A nd           | Web:      www.OpenFOAM.com                      |
|    \\/     M anipulation  |                                                 |
\*---------------------------------------------------------------------------*/
FoamFile
{
    version     2.0;
    format      ascii;
    class       volVectorField;
    location    "0.7";
    object      U;
}
// * * * * * * * * * * * * * * * * * * * * * * * * * * * * * * * * * * * * * //

dimensions      [0 1 -1 0 0 0 0];


internalField   nonuniform List<vector> 
19631
(
(5.002878994420374 0.004754199200930803 -0.002408707939310493)
(5.009711360531219 -0.003442599728446957 -0.004425382755441427)
(4.952898829875193 0.03725458084024971 0.09795437879043062)
(4.351648113849273 -0.1138248418612877 0.3776091925436391)
(5.003416797203822 -0.005246323317480134 0.003688736190000791)
(5.093449771418588 -0.09092866366364241 -0.00361991406088335)
(5.025692636949767 -0.01312296933250591 -0.0100718680213349)
(4.955620526072654 -0.03559642547177855 -0.04297578088484508)
(5.003620957371222 0.0002038800096299509 0.002689546555900254)
(5.015954705535832 -0.01887936406433354 0.02318055163757557)
(4.965986101066522 -0.01641970924715033 -0.01970039658705342)
(5.024155928995782 -0.01304549588279883 0.002754848644692691)
(2.933737348519406 -0.1739113714381676 -0.01197271365183343)
(5.015376637479973 -0.0214558024658656 0.01811251683789973)
(5.015472501199318 -0.007040000639469655 -0.005917019526636304)
(5.007095235269639 0.003561946324124756 0.00329498461073154)
(5.132822987925601 -0.09537148556817547 -0.2182917840289124)
(5.014889619574445 -0.01073358192041341 -0.006794101251298578)
(5.000442312530447 -0.003352257474827046 0.002016634581935106)
(5.018417789776956 0.005151112684737093 0.02673041892505136)
(5.00225790489247 -0.001810510345001923 0.002571855641091852)
(5.030169422504345 -0.0008235242186175963 -0.012264162090204)
(4.998260490039772 -0.005833053446332259 -0.001141036500701363)
(5.005039337295753 -0.2282366136480166 -0.257023901724285)
(5.017564771810802 -0.01393933860879394 -0.005369446764920139)
(5.019092420215113 -0.008252277646003871 -0.005638952506194075)
(5.034554480711233 0.004767747645782553 0.0007736266113689964)
(4.761052672053767 -0.03325861888252964 0.01249231934623526)
(4.428323632692962 -0.6449915384444405 1.164991990471565)
(5.024270635566693 -0.001461663506394 -0.02994372436919401)
(5.001228040744271 -0.002231124061994285 0.002002306537946855)
(4.981811911395223 -0.05255473340418163 0.411487546584181)
(4.991734619554991 -0.01738025949324897 -0.01121239548748595)
(5.022869798793892 -0.01156150842432833 -0.01404170013623062)
(5.069637469171149 -0.1229025270084751 -0.04059560848921417)
(5.016645746503296 -0.0135855711022685 -0.004579273822444917)
(5.050467943813347 -0.02938060180856067 -0.008979097812901737)
(5.002656470656071 -0.003392793033728104 0.002124672062050353)
(5.033134985678201 -0.04848734444251981 0.09904068183132204)
(5.043433268535514 -0.003790032847493152 -0.03640049119450753)
(5.074419204761237 -0.0568725486722193 -0.319410168490969)
(4.826664441746836 -0.04353283118088388 -0.1531445912114451)
(5.065040660262779 -0.05203398857622245 0.01332715915912465)
(4.534662147521749 0.06117292108909824 -0.06520899608720043)
(4.965346276316626 -0.02502609001659568 0.07462947292493192)
(4.480590777239938 -0.1105917450595751 -0.2359168123198905)
(4.994126119765843 0.2004619918827692 0.2534608190896774)
(4.964501282214308 0.1349195279643947 -0.6226969352545124)
(5.049048762372604 -0.05005098619842736 0.01328852211149609)
(5.018006149640912 0.02863059098924356 0.07662270306027399)
(4.994734168219829 -0.0008046655898756492 -0.004604560388793704)
(5.027061488406993 -0.00887411653940233 -0.002791262703509412)
(4.900422500546338 0.1792815310607005 -0.1142675954529204)
(5.028895309151112 -0.03357457220219839 -0.01338870740362863)
(4.966997881553868 -0.01465054724559086 0.02096399322595738)
(5.048390572726356 -0.01203041349415392 -0.1773325983601696)
(5.087989116805151 -0.1366374334651752 0.04448547754763044)
(5.024338621752812 -0.009148787545614814 0.008186887729788714)
(5.041084113216473 -0.03709312948914788 -0.07926682576550334)
(4.69888914073491 0.09927714457823095 0.09771560295642993)
(5.09615884976399 -0.02572530441586882 -0.02097950564874185)
(5.129600002453062 -0.1276945780552103 0.2113226922188806)
(4.979647801120985 -0.3111957641936279 0.2208598143700893)
(5.092501413514942 -0.07471002533298796 0.04536217365001723)
(4.531583739655951 0.08270485781046295 -1.081378921423359)
(5.003432126296299 -0.03738911233687001 -0.4329221749138193)
(5.029679970914263 -0.01897269995447181 -0.01821879451973575)
(4.990175223324693 0.007257015719940808 0.006999172091970292)
(4.360951909362944 -0.006203695218796195 -0.1369193605346016)
(4.971855475618157 -0.05559879865509355 0.0370813857520227)
(4.590055071059638 -0.01268460953438888 -0.04195265566404333)
(5.073244405238048 -0.06373810947163104 -0.06701236356002212)
(5.06581332174258 -0.05056146449321764 0.02123676445912917)
(4.999931350299375 0.03398624949094621 -0.1859068342218459)
(5.03759569460038 -0.08402865868551146 -0.06858384525181363)
(4.634000489173291 -0.0688859768672779 0.3916678797827995)
(4.992916703810115 -0.01006599140421234 -0.03495115943833758)
(4.94486821312686 0.04896870466835504 0.3663382702742958)
(3.223065584347087 -0.3221920223569513 0.08086774183661222)
(5.026111948369253 -0.01350407293248933 -0.008160063384707449)
(3.046305021316096 -0.1047125496855399 0.04205425778409414)
(4.985293618818603 -0.06061139568667735 0.08945667807144297)
(4.528208374344905 0.05093791618625548 -0.1769325819656952)
(4.135609640303563 0.2489175761162652 -0.05684499547201196)
(5.041286082095534 -0.07634999210785168 -0.09335355495630977)
(5.074536597957621 -0.07961209479612713 -0.004744858581353223)
(5.092315405994437 -0.1270912195663073 -0.05340252515302478)
(4.560444517484515 0.4096458561301264 0.1588142744546116)
(4.453303064405278 -0.122987137924962 0.1773988362253848)
(4.935029191496566 -0.1199175761435283 -0.06436962657745793)
(5.080162779923616 -0.04382975134001715 -0.1299828958900417)
(4.623445458515798 0.01753453001696735 -0.1671638078940291)
(5.115716062097975 -0.07162275409113339 -0.06231299079941105)
(5.102161916208188 -0.09919518218999435 0.05877912155992569)
(5.080517449982314 -0.01510374426946926 -0.08428264443298686)
(5.085953303312347 -0.09668938662887114 -0.06092716118648515)
(3.998524476969557 -0.05150689750530189 -0.1242968726729123)
(5.010080338683388 0.03820448185761458 -0.1468271604258868)
(5.098447873989834 -0.08196029242203828 0.09941110126351302)
(5.051990034471822 -0.08084823060685933 0.02620709229748497)
(5.012033487584997 -0.01522117235979096 -0.01224441677285607)
(3.319226212044132 -0.1566754268817838 0.1591585920035448)
(5.019067959853873 -0.01258409086977159 -0.004154446295585744)
(2.489673175925704 -0.1695776098935339 0.003551492942833818)
(5.000613640521258 -0.03298128950345919 0.1816671507517636)
(5.124039282624071 -0.07761941405810445 -0.05110067964672018)
(5.030312105463618 -0.01735885383441062 -0.00551217958310669)
(4.120984643938021 -0.07884743182676242 -0.1581049908174307)
(5.017024395303685 -0.01983857353683742 0.0145468939161729)
(4.952149038622798 0.0004964121351808278 0.005003207242221166)
(5.109225192185514 -0.04059807735642547 -0.01531804569096041)
(4.377077194181435 -0.01022148802969745 0.03479923665663377)
(5.01343081634873 -0.02128416727742398 0.008632129512008591)
(3.311878749654987 -0.02999815110247584 0.08684934584067222)
(4.051069073235422 0.07061146377493363 -0.1368905584666899)
(5.15471298510584 -0.1157775965684716 -0.1460486041534959)
(4.948790566629789 0.05001623451444061 -0.01091530794933672)
(5.032033775124945 -0.04760086689064733 -0.07704488843712227)
(3.471918945260002 -0.2418505770671845 0.1464018951652417)
(5.001621597987866 -0.001681835433813557 0.0008940265806057636)
(5.017369311077361 -0.07094808490060894 0.07053048598886548)
(5.019705575307269 -0.02405113742653592 -0.02363960735230407)
(5.020533873543592 -0.01462498886971549 -0.01001313543336028)
(4.993777385701454 -0.0139288802523153 -0.01182031562239031)
(5.006439871573167 -0.01143672104656001 -0.05942698849781924)
(5.018795848878642 -0.01590313956058657 -0.007559333110978993)
(4.848312884920722 -0.03042465045992844 0.02568180833235047)
(5.02379212433205 -0.01199977399799134 -0.009479950402853876)
(5.01566200560919 -0.01403371505185382 -0.005618075513583308)
(5.025917432486765 -0.01132790822329729 -0.005174450309793097)
(5.006534544790407 -0.04211251629778677 0.03823175599032115)
(4.921020451180008 -0.1290053050059884 -0.1853871635866101)
(4.235458235189232 -0.4290508526647063 0.1997205478272093)
(4.29529325046704 0.2684071941738811 -0.04484021413403289)
(5.02472335443598 -0.01562806202309582 -0.01948602759645205)
(5.030434903399562 -0.00836636049991387 -0.003833518859142735)
(5.035689892395094 -0.04101218924442897 0.004422127442755865)
(4.93348434983517 0.005823692035840019 0.04206406707249248)
(5.036786292117692 -0.01893331567401071 -0.02913844686756195)
(5.035160053936535 -0.02661769920779384 -0.02137248771543948)
(4.966503828435416 -0.0176454157726914 0.01616421347840263)
(4.786607965415729 -0.02915739935301561 -0.0305779801232077)
(5.067259806698416 -0.002014029078603214 -0.2309419190919366)
(5.088796314125521 -0.06757689783654058 -0.05519893040256643)
(5.040476753713559 -0.0818320937703715 0.06861694755652262)
(5.05453890993776 -0.01803257080137069 -0.06335597861228083)
(5.035009313995325 -0.01539711852941797 -0.04918043418771218)
(5.015372705151563 -0.008273314626566365 -0.002733060590960745)
(5.236295273072215 -0.152376253091632 0.2494578628764262)
(4.90466500047217 -0.01968779321179987 0.1447225761231006)
(5.008457963785705 0.0001683383940202922 -0.008132701443066295)
(5.025748400349428 -0.008775342826670952 -0.007302362776302399)
(5.024319628328933 -0.01238074653216603 -0.0003389319306242616)
(5.033539953845202 -0.04664563745393222 -0.009621689462216103)
(5.01117836897309 -0.00574520737568518 -0.009102760322898468)
(5.01633973582548 -0.01002037818487536 -0.04696372734915377)
(3.702264664575592 0.1239287284071201 -0.01681933855924595)
(5.045514217542519 -0.05911737932736818 -0.06434867866097357)
(5.065662607727716 -0.1090769928281631 -0.05271630237194568)
(5.022293968002112 -0.0177870876004411 -0.0133710619301178)
(5.005634406755314 0.0001405795573493632 0.001867593395870774)
(5.009841747747757 0.01384184776041021 -0.02672477724313096)
(4.768254735174686 -0.1169583242415499 -0.2505707112728816)
(5.007718270330689 -0.005682797976308636 -0.01634414726381375)
(5.022533387789327 -0.01128100717687695 -0.00367722007912693)
(5.022435732989088 -0.008369985603636084 -0.009390899002391718)
(5.016867308112637 -0.01188641539207097 -0.007703116508141534)
(5.016165269543333 -0.006483591318214204 -0.004341755205630626)
(4.977343430947208 -0.01198497504505421 -0.02229608888628901)
(4.67321296783867 -0.09734400674012861 0.1025102488171412)
(5.062351802117898 -0.001172915176519145 -0.02558483960746941)
(5.055634547966824 0.02829647241233338 0.05614193288500982)
(5.08011984351044 -0.01783794955228781 -0.05336751517838983)
(5.037931826575257 -0.01991578838066482 -0.03099881833672822)
(5.041300160775656 -0.03937133905631075 -0.05431613900656307)
(4.844060272079921 0.1146728114277063 -0.05751894004961018)
(5.024898989108586 0.002067454977786937 0.01648494040778639)
(3.6452242863606 -0.03851196437816502 -0.02251875802353015)
(5.027532737175157 -0.02204450230337061 0.009200481980005932)
(4.89557662171177 -0.0405632851929837 -0.1929784320297888)
(5.037252002977691 -0.05042984403592025 0.01946144308140861)
(4.99457176528768 -0.005496616822752551 -0.0121481267116441)
(4.9739367733859 -0.01617338729755551 0.009675236406976775)
(5.025853149499236 -0.006033669675547235 0.01534686085962435)
(4.078757389589875 -0.03886691347012788 0.1818471943171992)
(3.085002766560866 -0.2996607050717113 -0.1351777500061318)
(4.677998809734242 0.4910041743422242 -0.1258001706287885)
(5.000779036819285 0.002239882481434548 0.01397070200689911)
(4.888413507426968 0.04282441385411504 0.2199313937618178)
(5.021548071529837 -0.01050503437801851 0.008977297879271507)
(3.451067407382475 0.006497875671237664 0.03451774155909816)
(5.09508181587753 -0.05432794735892681 -0.05647971934181489)
(4.99469589047894 -0.03002622495753966 -0.04947600656047911)
(5.013877886011187 0.02064227759173216 -0.05326239675104354)
(3.64944191016387 0.08576026290244998 -0.0179900335919892)
(5.124639860927448 -0.09635196621650827 -0.04604060559539046)
(5.006509717294252 -0.01075822483423607 0.01840454492852357)
(5.045643562675125 -0.05759682917181336 0.1357087047791432)
(2.799264454878549 -0.369096412575296 -0.3507839202107063)
(5.002297988826683 -0.4250139464002197 0.4597932225665412)
(4.878668115987022 -0.02885754067997548 0.1346709306482053)
(4.971137811981309 0.06573642834432515 0.1798649804304595)
(2.316996365742092 -0.01177685476241063 0.3243372171389118)
(4.324479693272628 -0.01426532876269732 0.3337168615146109)
(5.011402245114855 -0.01824512291042953 0.009371657268307843)
(5.010738813244267 -0.004555582990020542 -0.008971384124790824)
(4.986018770797388 -0.00366523249215347 0.0005251876275764528)
(3.633323825643311 0.3512490322661476 0.07517879420040297)
(5.003440717579346 -0.004492041594819501 -0.0006440173731280692)
(5.019981069285533 -0.02866509247703147 0.09970317833382537)
(5.056113456266506 -0.05235255596033032 0.01636861004447089)
(5.03829659324997 -0.02333508305105763 -0.02146248473358645)
(5.102343951410616 -0.07651687241447949 -0.03863586017586084)
(5.004749881820476 0.004662724259466754 3.599653876562517e-05)
(5.056408523731573 -0.07181792421823692 -0.07024308001512837)
(4.243729856464793 0.0138802315121085 -0.2806858771165493)
(5.118543582916941 -0.07036431755985238 -0.2397355624431454)
(4.921089160610179 -0.1855700485584506 -0.09848213374901292)
(5.004617996467307 -0.008062932370106505 -0.003438071634602075)
(4.963556860887425 -0.02227601689890504 0.2061930619599142)
(5.001646121812861 -0.001692494460977485 -0.004703401437432868)
(5.046444423994529 -0.1200695700341257 0.02469490895341201)
(5.022245226384373 -0.0152591916590103 -0.01116653344898756)
(4.954638352176044 0.1182515779569419 0.2611002635737943)
(4.940911675414781 0.03083966761238056 -0.01052904597731895)
(3.437551209938372 -0.1937500513497063 -0.07384092925733415)
(5.051516717434509 -0.0674857945961095 0.03125326538203764)
(5.045218655138914 -0.03380950102055243 -0.01197083136411616)
(4.918011969584265 -0.01143551322134292 0.006610439273945058)
(4.999855933917342 -0.1053274781108639 0.06902164601675521)
(4.948547087632732 -0.1081415133073888 0.2547013983574188)
(5.013906567790441 -0.09275326555765916 0.01299575549125418)
(3.47881984183548 0.07151868058868409 -0.2779486518237501)
(2.595634904786139 -0.149561898052485 0.04234463846742948)
(4.963000438198966 0.006774839596641058 -0.007484945976544624)
(5.024136685762024 -0.1330210411649874 0.02372715565597988)
(5.0631187875234 -0.05707626384143923 0.1665421333232772)
(5.093425993361682 -0.1126915433761103 -0.008788941026075301)
(4.832922115004049 -0.3385914080766909 -0.08366888368801308)
(5.078717053976889 -0.0256031715305283 0.04073676869644966)
(5.006697024119185 -0.004900761134672102 4.732991545751967e-07)
(5.010992274080647 -0.01170373631924369 0.02256106261311898)
(5.012020478534666 -0.01741896128777277 0.04081360626129956)
(5.005620401812049 -0.002435587374821354 -0.002700033739412286)
(3.613776744567017 -0.2719572418682953 0.2199917448258131)
(3.74062917151246 -0.03362912880850043 0.08364508773359727)
(4.987216778804636 -0.01144940768616496 -0.0207277980207724)
(5.116620722700766 -0.09052012584944809 0.03051214858137477)
(4.320533497105617 0.1684272391725129 -0.02914714896377438)
(4.803242224963162 1.255109492837039 0.6654597308411548)
(3.297917357766011 -0.007000513636555486 0.0229903877579501)
(2.872464405659056 0.2431314438970939 0.007903658807469372)
(5.195723049693298 -0.1127868339238967 0.1787561066170613)
(5.061533894758302 -0.08869909249623005 0.155954649388188)
(2.321362133480273 0.2114128791985893 0.01196577732694674)
(4.984326055986669 -0.279754024173237 0.130944343097167)
(5.047038819168915 -0.04296177150636783 0.08751717859034537)
(4.398029447207715 0.07033151056444722 -0.04381113463893973)
(5.009615046730741 0.001068051774169371 0.0001547338391725082)
(4.62250925700074 -0.05165077491558585 -0.1584015632762862)
(4.802260321172811 0.1846586993574234 -0.07603105912047139)
(5.094950444770721 -0.04796300478829461 -0.1777307985392275)
(5.102751099481334 -0.1085375165131575 0.09823997050797882)
(5.097721255329576 -0.06425693183217335 -0.125204558558357)
(5.003658104598545 -0.001739946082957924 0.002186670492163405)
(4.162880012366005 -0.04850307391316387 -0.204541866253201)
(4.598292152445155 -0.05100638187909073 0.2214271654609251)
(3.609553263516791 -0.1950436413885577 -0.1111408473625283)
(3.530120515140599 -0.03608940429097836 -0.1225741839021009)
(5.093854956565922 -0.09637461190471114 0.09257321577931853)
(4.144278371860288 0.3320045129402376 0.3748932378313802)
(4.995460663109573 -0.03797297323313555 -0.006876250910190175)
(3.916561495472234 -0.08155294609298436 -0.0842904188088731)
(4.96308741022276 -0.01840216763299072 -0.05318407876861632)
(4.989111109557953 -0.01007921170147853 0.01147750274089564)
(5.069727816257291 -0.06347486058779787 0.04577140551746622)
(4.543059877566954 -0.1740564018057275 0.005048343378223671)
(4.215209306522244 -0.2176236611154944 0.6143191810031825)
(5.045679720856708 -0.05253089772134306 0.1160478984320974)
(4.955188579667041 0.09211022708615556 -0.07140210418516282)
(4.837168173959721 -0.3687666698268459 -0.08395365879723142)
(3.783860727688226 -0.2177934050786225 -0.14380811127848)
(5.113778308499131 -0.08559497746829886 -0.01995059495283507)
(5.054620501286593 -0.03841852177676162 -0.01387055387619732)
(4.982241894103813 -0.2089476295652438 0.1558597346336738)
(5.069577298878854 -0.06620399657208757 -0.03362024794346429)
(5.006806644029096 -0.002690305392917093 -0.009369547429158166)
(5.098407505363559 -0.03676380330001368 0.02060513951635944)
(5.117395612896257 -0.1354878158696362 -0.07297661286954092)
(5.03558959565787 -0.02872889598694628 -0.08794428027438687)
(5.007545726115124 0.03113558367770214 -0.2651430623349713)
(4.500137421825693 0.003850003601700918 0.1464818980471717)
(4.9995070662212 0.07701498027690529 0.07635438904135014)
(5.026382738636147 -0.01113632479333015 -0.001884961026741619)
(5.004325210550405 -0.0008262995588010903 -0.002373859910071474)
(5.08870165234489 -0.2022217136353143 0.5111982510415427)
(5.318959534039585 0.3744219000556551 -0.05355479247773767)
(4.721981400701751 0.1822435956329495 -0.1054454776775804)
(5.056484833687625 -0.2249027880486227 0.1788071642423628)
(3.864072694591429 -0.3201070089445697 -0.1630866639090249)
(4.767208511079501 -0.1432745349274047 -0.08411554113946632)
(4.806270561826538 0.4476855818793251 0.2741780870550498)
(4.990579390356596 0.007013518946135867 -0.001864404438276976)
(5.126168935027736 -0.1019647613038873 -0.1567497373147138)
(4.972161899522225 -0.08213939396903969 0.00266734114143354)
(5.04465170762994 -0.02415520109941314 0.04879392299187638)
(3.147403406403015 -0.6287232715529321 0.3856380711878589)
(5.001804595658362 0.005586406451917857 0.00609506068035211)
(4.987235449611304 0.002714125043125933 -0.002141302386003083)
(5.004043064424765 -0.006840742910164556 -0.03020159200957178)
(4.994540849926971 0.003509855681037075 -0.01004393957413625)
(3.246549293492257 -0.09230956919579775 0.1545539826448973)
(5.001310187732064 -0.04517769982760746 0.2829587522959512)
(5.056018059764801 -0.05375527200924934 0.005347458915103483)
(5.033188717839568 -0.01390137984627002 0.01375035980335524)
(4.966921636309218 -0.02827470437619013 0.07328602279502502)
(4.991510451316997 -0.005940482204758808 -0.004237554451374708)
(4.99187218506804 -0.002824379129003794 -0.001016753821828865)
(4.547096495745005 -0.1144532799417418 -0.1039239402065281)
(5.000930591926859 -0.001493811648936526 0.004001366617423576)
(5.086197939448608 -0.08649482860537984 -0.0186745740869864)
(2.019995747768211 -0.1201383673645019 0.04191473096853845)
(5.109819095666271 -0.02761899890005198 -0.1824307361309837)
(4.984932097152091 0.02041666717118929 -0.004980092922515608)
(4.471177010921987 -0.09374323421889151 0.05066090848546437)
(4.624285847759682 0.1158291019640068 0.4822386862864617)
(5.001093482157103 -0.08139631501096962 -0.1147918199143208)
(4.687882603778023 -0.1150738834637212 0.8893545298153039)
(5.071519693569467 -0.09338177358653253 -0.03941353153366992)
(5.099271679678014 -0.1594125674919058 -0.2508457270017876)
(4.990889678748729 0.09329462498130155 0.06243553142526845)
(5.039495327147806 -0.02096515326373683 -0.04143791653456722)
(5.020909718698698 0.024434151056136 0.09836474815206285)
(5.003957620757777 0.06011640563161964 0.08761858063940572)
(4.082971240377001 -0.006987132439931144 -0.1994263511957231)
(5.011999981540899 0.0097366291567166 0.008775807707533386)
(3.535462452221419 -0.2274812482748125 -0.1430159321874689)
(4.718828139015759 -0.008246938055057166 -0.1831429682487751)
(5.004274090905133 -0.004555243188892602 0.003168250744937181)
(5.054565212916907 -0.04847397378901885 0.03227070586546853)
(5.032896277664973 -0.004532528986403521 0.03090610413866002)
(5.052016182561217 -0.09968270879237309 -0.1463221347266601)
(5.048668809801148 -0.04045936400800059 -0.0194662086723499)
(3.552954818629725 0.07346467840112551 -0.4239247706984902)
(4.789906011155728 -0.1999967076322573 -0.1567561866463578)
(4.158792826545209 0.2746728176100603 0.002332511036806156)
(5.005799788606462 0.004143116543790693 -0.003592658172907084)
(4.975047617900877 0.118302834935286 0.3073304046479607)
(5.053032324158325 -0.07351740993401129 0.0212130424339097)
(5.039465286163838 -0.03122867698118469 -0.1031055781565242)
(5.06086280309786 -0.05538903424071279 -0.03121829037222805)
(5.093962751893482 -0.09798499822101982 0.1360557151383684)
(4.30150484725096 0.02419654937527031 0.08618644032661275)
(4.841743123631667 -0.2485172209839666 0.02656083616952827)
(5.065629192593812 -0.06042875401705057 0.05675160156789504)
(4.6257791245048 -0.5700455629045689 -0.7198964974067055)
(5.039164830243324 -0.07881487771829979 0.07017299011430336)
(4.362300205534949 -0.1658963502643803 0.2725425426410135)
(5.087353077429263 -0.1951699811068164 0.06858970589502347)
(5.050536838552843 -0.04280770345123947 -0.08158361755386673)
(5.063706588123356 -0.05629970805612425 -0.01873831400930229)
(3.634389938222734 -0.006666667699336911 0.01877627111962922)
(4.932648693650319 0.1266693038938025 -0.323711841964745)
(5.008587868894493 0.03071682357104822 -0.03465341024254924)
(4.94774429802133 0.2133164114003132 0.05304078940045387)
(5.050125125018258 -0.0457040344126934 0.01805324408392263)
(3.898225992061033 -0.3455885639503995 -0.008397659669698698)
(4.973812583032858 0.008988728613493138 -0.001772431088428036)
(5.04620447836933 -0.05067197491232829 0.04080098209620602)
(4.928615009588394 0.06258393953183047 0.03362330877491642)
(5.00091035777657 -0.002350308411486958 0.002719357279988188)
(5.001546196514588 -0.0007298327949819846 0.00375864484181986)
(5.096093723774937 -0.06072460692314553 -0.05899746650693036)
(4.994578304416472 0.01265919178849011 0.1162651628392668)
(5.096510312476735 -0.0003503517669205371 -0.01691221732321185)
(5.001631170436487 0.003529271037743684 -0.005017784311902233)
(5.013832978639218 -0.02252466927954276 -0.02783597254364875)
(5.023466093684214 -0.005532361608486297 0.01075904324204733)
(5.057674876840455 -0.04350570181677308 0.01482906059509935)
(5.012070502753985 -0.004203769072388282 0.005132791550210621)
(3.755031184961677 0.0008150891020615208 0.06679106419156017)
(5.019254721736461 -0.007251593880348106 -0.004839030703388537)
(4.997127192132918 0.000594786674669602 0.01103523426729737)
(5.008004839540653 -0.003015689616300283 0.000281083399533547)
(4.958894895158232 -0.07534465908938572 0.05778919437031611)
(5.167840460796603 -0.1639447911043469 -0.001971802570152466)
(4.998666611884808 0.002469275297051103 -0.00211121435675891)
(4.985598876447214 0.02084920856068351 -0.0001110900817555157)
(4.99718531351069 -0.009613865443880236 -0.008209793922597061)
(4.850829901609438 -0.1811779092499003 -0.1080456334981802)
(5.023108152038795 -1.23152118958276 -0.643251376297763)
(5.002050832301161 0.001978558044338699 -0.0008910438003543115)
(3.177543220440024 -0.2244640514562965 -0.1425850840087259)
(3.487832983778082 -0.1146623772925903 -0.2582947920111129)
(5.041412656257616 -0.1441184342692028 0.08166003867583535)
(5.002501174877547 0.0008458409254387681 -0.001178200447767086)
(5.004723978151492 -0.0004201664858179315 -0.001557637672549919)
(5.130717306218427 -0.8478477865614348 -0.05414131526082067)
(4.977164776833739 0.04298771166578527 -0.004153769745551691)
(4.97317333651066 -0.1707521711554561 0.04476568810706463)
(2.747924034941775 -0.03655717462663673 -0.2522318359631183)
(5.054292986340329 -0.03277484822410773 -0.1404971137918354)
(5.018382405724734 -0.001119052775652134 0.01588354558080872)
(3.221321238689273 -0.2631763779798087 0.1367699782933745)
(3.865508073271609 0.009828336783354586 -0.4300702025899193)
(2.346361578640338 -0.2359737354528987 -0.3593766472984545)
(4.672919139413823 -0.2588876688758649 0.18479160091559)
(5.059006972468961 0.1031402096563492 -0.06328373645243632)
(3.227897560678964 -0.08987397304996164 -0.09199044975374038)
(5.051595424473705 -0.1856490628662665 -0.03219009630814652)
(2.363755865146629 0.09945349808441102 -0.3742184532110643)
(4.821382654002135 -0.782254577924468 0.5310716748658871)
(4.991794633469596 0.06775845487134449 0.02346462401167627)
(5.139132065609544 -0.1123029454443658 0.06834395194534176)
(5.074790213577212 -0.05043873337556314 -0.04805742439231211)
(5.105366981635203 -0.1582893314440421 0.1273542997541024)
(4.739167864336084 -0.03980893469606045 0.2847821601505631)
(5.068159140545753 -0.05239746497051597 0.1027100165429051)
(3.835071659355678 -0.1772386267296256 -0.6926030293232296)
(4.725182770743891 0.04944072005674492 -0.01699555098583666)
(5.002814546536614 0.02841276140262532 -0.04015668513635411)
(5.012175933868829 -0.01324475948055534 0.01724058308242129)
(4.945852103704357 0.1480357657257873 0.0280584893156208)
(4.636859444719972 -0.1935630900979574 0.4913201517543206)
(4.96927387631883 0.07432700176890557 0.1566811043776896)
(5.046173831226482 -0.023126120267476 -0.0185504122242582)
(5.098702060036456 -0.06824341015176634 0.005560402870510711)
(5.09589361031628 -0.1103292855713082 -0.1005320218744029)
(5.028412001045786 -0.007636398139054493 -0.02351352887545687)
(5.036808363677216 -0.03711890174423801 -0.00349013094265744)
(4.952189499741077 -0.01175088573828192 0.06418791190768004)
(3.303307899263706 -0.09691068441046491 0.3417269915158365)
(4.707630677866876 -0.07842037417660791 -0.1257397313057005)
(5.006439011923333 -0.01123213174871649 -0.02403286683586198)
(4.997914300097966 -0.1459163946315452 -0.2709639089914155)
(2.485135877209379 0.5683261033467308 -0.4110853038007659)
(5.001304882277145 -0.0005435062991925762 0.003357515411781001)
(3.226746720179626 0.8684245815182375 0.3534466819336295)
(4.566385763609841 0.1275094860758563 0.2217648213888414)
(4.019213256453328 0.4552196549901705 -0.1876706098853739)
(5.000021356071108 -0.001973159999434455 0.004195003359372039)
(5.059646976691842 -0.0927567437514953 -0.1368025248072261)
(4.76463857605708 -0.05501938938303348 -0.4148299390019012)
(5.075920367187671 -0.04492745155379336 0.1308278568861557)
(5.002637405857304 -0.001066109835693602 0.0006743831545060166)
(4.065050781440167 0.5949614373156584 0.4664126433911918)
(5.00186627430557 -0.002874752384557317 0.0007020366246829442)
(3.630032731019548 0.3166976167408354 -0.4293877035155306)
(3.138555999836881 0.1946110715582894 -1.228725507424056)
(5.034590846788336 -0.009944198778332832 0.01962505845075962)
(4.980378389652957 -0.1817184459990246 0.05143213394763176)
(5.126366336858027 -0.08542938091284617 -0.07269793222313163)
(3.091053589122998 -0.3887289870913798 0.1136320124104156)
(3.970902113307507 0.04976786024409485 -0.1252101069240011)
(5.003056896228988 -0.0004584733710896251 0.001626627705677484)
(5.00223574792584 -0.0008419758018860072 0.002193814747391278)
(4.992548751255404 -0.002476267696535609 0.03656638830102962)
(5.102099476564727 -0.05186563011400879 -0.05498931313615588)
(5.070177401598099 -0.07525517450859659 0.05253585333354927)
(5.007134879464596 -0.008013269728898077 0.02130254133234344)
(4.954599659078798 0.00349102834057408 0.03643947163693029)
(5.010566579944124 0.003090738810504231 0.01296295516934882)
(4.956262453933654 -0.04540617165141537 -0.1853494632725027)
(4.98762099226689 -0.01226613861686891 -0.02837736371789215)
(4.961176362858807 -0.02473874546876115 -0.1531366242524992)
(5.048978481500068 -0.03759431253177772 -0.01778272441537674)
(4.96181847396773 -0.08547624767993042 -0.1962035270662258)
(4.94945576649609 -0.04044964920313904 0.4472277607362048)
(4.983898039100313 0.00964016088888018 -0.003505636062866454)
(4.560860681696242 0.1716529463624556 0.01113684268413687)
(3.996356237696809 -0.009210049932817321 0.3565680831802851)
(5.112411767216028 -0.09860329417101482 -0.09946722352245856)
(4.987466298229163 -0.01232923762425289 0.01103525176841815)
(5.008019151885572 -0.002594062373593585 -0.001273902879523281)
(3.290833994041268 -0.1034276830528354 -0.1227898012830919)
(5.074937953739398 -0.06063119552075737 -0.02252640125829599)
(4.968303366519025 -0.009636381804151495 -0.02127276066508683)
(4.531791674891633 -0.149456552841765 0.1038286414189831)