/*--------------------------------*- C++ -*----------------------------------*\
| =========                 |                                                 |
| \\      /  F ield         | OpenFOAM: The Open Source CFD Toolbox           |
|  \\    /   O peration     | Version:  v1906                                 |
|   \\  /    A nd           | Web:      www.OpenFOAM.com                      |
|    \\/     M anipulation  |                                                 |
\*---------------------------------------------------------------------------*/
FoamFile
{
    version     2.0;
    format      ascii;
    class       volVectorField;
    location    "0.7";
    object      vorticity;
}
// * * * * * * * * * * * * * * * * * * * * * * * * * * * * * * * * * * * * * //

dimensions      [0 0 -1 0 0 0 0];


internalField   nonuniform List<vector> 
19631
(
(0.003829565404140369 -0.001761592850090607 -0.00315350470908836)
(-0.02164456448131841 0.02139296932323319 -0.01504281582235057)
(-0.5726142621791283 -0.7135039696168519 -1.276836883922296)
(-0.6921815544769759 -9.094498015225408 2.35831371411365)
(-0.002794037613001176 0.002078421688140005 0.0009020941654886153)
(-0.1400135838165535 -0.2257060041630058 0.09727469928525671)
(-0.00194448450500831 0.00402461745249106 0.004868944884553306)
(-0.135212619203487 -0.1672605034266125 -5.652113504443162)
(-0.002806921757873432 0.0002255583318746484 -0.004948848721045981)
(0.0004411968591574705 -0.0005043932700259032 0.01048901161402688)
(-0.003075962246231898 0.003693776674524243 0.01785472199367007)
(0.01141854278349875 0.03759113591137011 0.008574012502533857)
(7.430812367670688 18.20913565253879 4.522950972237197)
(0.01717791842118713 -0.03346616548051116 0.01046463272292851)
(0.01261248880356387 0.001604693812509926 -0.005101068746471689)
(0.004396951956896771 -0.004796815675837777 -0.01697600735618107)
(0.2733914029523928 0.7976692727410175 -0.3474794086890771)
(-0.001999164808548907 -0.002530050992716891 -0.002014618097112725)
(0.007269185828756572 -0.001746264953247983 -0.003150768714278157)
(-0.006331304043640116 -0.1363200663896664 -0.06185981626534384)
(0.000655369081430669 0.00028886427271376 0.0004149002458712074)
(0.01209368880897731 0.08922510338504552 -0.03258898645359604)
(0.002778107266233754 -0.001159952840088977 0.009844784307641569)
(-1.345680034986511 0.5231286682948517 -0.922247297315496)
(-0.04210594348883273 0.008573227217297506 -0.008039939456875147)
(-0.01162854803865396 -0.009252181553873532 -0.001862872081275202)
(-0.01228067749252384 -0.0002092840331791041 0.04879523493243763)
(-0.0006548398648151092 0.05094439317139879 -5.83554412458254)
(-11.07318514695415 -0.2574230424759945 -3.999090598438168)
(0.06949966354204254 -0.01728559804240388 0.036983791475265)
(0.0002426654201663427 0.0001361332946027847 -0.002162514118709644)
(-8.93972201666659 3.430174998715675 1.785122745817289)
(0.05845118771660351 0.00327475164508937 -0.05598451071479778)
(-0.01402261432386951 0.0003684877746790278 -0.007325348040603445)
(-0.1354622731322064 -1.961816490363614 0.3256482448733357)
(-0.009482462159481375 0.002803789454888437 0.001323227617087587)
(0.06914406794028749 0.03165896060998694 0.0438932886840236)
(0.002991921359818484 -0.0002125732024218654 0.0006496361391266025)
(0.04219954864159024 -0.02456599816268685 0.04837656388249743)
(0.1088074147641586 0.01242591919376277 0.01573548627720459)
(-0.7355708262626944 -0.324508357330501 0.3888300435721648)
(-1.525100552124205 3.90512861315237 1.899166544955085)
(0.03619434448800531 -0.007250367616087286 0.0004641217710184831)
(-0.832937332673401 1.140442722310748 -3.368152167190404)
(0.0828710694354796 0.04220114913546347 -0.3979733994442837)
(-1.574023097835074 -0.4266845461691421 0.3056412751088061)
(-2.80656624780577 0.5928607292907238 -0.7975976637802611)
(-6.823347286094153 -1.171453621393126 -1.880272200011662)
(0.032260095537576 -0.01002043307159622 0.01748864695983925)
(-0.006318194820274874 0.03763533580229785 -0.05276331649300521)
(-0.004719191007508877 0.001966342405372112 -0.006733464324417343)
(-0.004719321638284259 0.00181128371320587 -0.002559852443652705)
(0.3646783650262133 0.5848327485414375 0.4626235042387029)
(-0.01571750988620034 -0.01862116917316451 0.02648305823638404)
(-0.001549897984950499 -0.01559947461258126 -0.01249164279763172)
(0.1638141779933952 0.1136594651093495 -0.05566105958689588)
(0.241190772886515 0.6251819256987818 -0.5482458495851602)
(-0.009941984259789208 -0.006146000838764294 0.002188911599427383)
(0.08063532046295543 0.002983555955707828 -0.107314612182278)
(-0.1591876852194536 -2.914821321365511 1.058126688504243)
(1.350528484384395 3.738177436597736 -0.1286069619655277)
(0.01467388746482212 -0.05249432002143462 -0.3037457147419982)
(-0.246506020842223 -3.604886603960201 -0.3243581000327465)
(-0.1868121828477251 0.0864680605101828 -0.0161394889984918)
(0.1019685177275946 0.9800047444929603 1.895453818667781)
(0.7145917474587844 -0.9362363546879732 -0.05562314888046865)
(0.03042895787709395 -0.005690738203510458 0.01930552855775031)
(-0.002507922679449714 0.01566666276485329 -4.745333358011518)
(-1.28630570298276 -4.336134284307791 -1.86861472318141)
(0.04212002111489253 0.002956744029276885 0.002039653606167896)
(-2.214322601157443 3.591920797085022 -1.994259228121912)
(0.02162649698457848 0.1436415034847762 0.008139579034158829)
(-0.01918414989635456 0.001683907161860024 0.04041586403218465)
(-0.8825799943651108 3.021118579000254 1.007740513764792)
(-0.2405677541835458 0.1040874969696623 0.09585189347210175)
(-3.508428644362018 -1.092935683532797 1.830389976010771)
(0.001721804779707296 0.009624630165951095 -0.001634056666987166)
(1.279696334993177 0.9484733049324992 -0.7814680421949132)
(3.756502368829948 -11.51096535866309 -3.68291647671843)
(0.02537657732966338 -0.01140502710751215 0.01118089553774742)
(-7.924715271759371 -44.63898959264485 -2.341908744272107)
(-0.008518935117706766 -0.2939775154737698 -0.7438857310000279)
(-0.07867603187649946 9.19061477704188 -1.492235161667939)
(2.279267987209268 -0.8006337751451196 3.608918212813233)
(0.1351777687694164 0.1218709070667599 -0.125127797292284)
(0.1058084987063387 0.04212518151481612 0.05521570604460558)
(-0.4059884739526058 0.4491713196175257 0.2843817628932216)
(-1.809011085573272 -4.542711512243584 7.90323918774947)
(-0.3345220847909622 -6.892486939075475 -0.02475531780899809)
(-0.3021714579483082 -2.024774025751702 -2.977275613988394)
(-0.1648534611271181 -0.0594587487724639 0.07830707557441505)
(0.1506330837548578 1.326496045341979 0.2044921158663762)
(0.1320533835984376 0.009666202223656578 -0.1674593638225028)
(0.2655098407352781 0.04977179602233572 -0.2107438113540326)
(-0.1523818152846967 -0.1280626483842134 -0.2418833235874819)
(-0.07562798873368812 -0.05957694780448374 0.08999882390926656)
(0.9135984158665758 -2.367184774153823 -0.4580729019559706)
(0.1737653042344995 0.04034806566934707 -0.1154713372854579)
(-0.300565044106801 -0.1187821402894555 0.1618109036011367)
(-0.05137313803627488 0.001512115220097833 0.008263629274660534)
(0.00592626438144557 -0.01592010511554946 0.001050055638546382)
(3.716989755952627 63.52084886660761 10.97008122305606)
(-0.001229528989725521 -0.001820521894554861 0.009870701125651013)
(4.858182396130662 57.05308406901074 -11.6479797403659)
(-1.286303863752444 -0.4184513448561988 0.7737445947872583)
(0.2446379762829336 0.02832737599556204 0.1595394755894657)
(0.02148158957784795 -0.001432740168633196 -0.001745173028406611)
(-2.366632979538886 -4.945611903410299 2.510364127233539)
(-0.02104848691264696 0.0002304753392027873 0.003333684714147044)
(0.002712722737093041 -0.0141248859831753 -4.578373086621065)
(0.001899530815326511 0.02523871780975358 -0.05473870639999635)
(6.372069067741617 8.37831887114819 4.624386279263536)
(0.001574284080012191 0.002331949746147127 0.002403170889963821)
(0.05020588428683745 38.44538852605603 3.540386165403468)
(0.9257179427264124 1.878325621062995 -1.335509635520243)
(-0.1910341905111287 1.506845114006308 0.01949672647648698)
(-1.841290649043023 1.770919956678796 -1.877821683967079)
(0.1345998866701552 -0.03743207893851988 0.009127766415054573)
(2.733087440794639 24.5343372845678 5.712795173305184)
(8.416720361802507e-05 -0.0004799168160893869 0.0004019105206401634)
(0.07338067185053432 0.07208301433850119 -0.02920209599977219)
(0.04324392105233579 0.01540894847656864 0.014201548428454)
(0.0196591288152015 -0.01134869386060481 0.01110164391322326)
(-0.04268370166256933 0.09556464548749016 -0.09916576431148076)
(-0.007116939624025652 -0.01485505502852908 -0.06952813610136602)
(0.0211161899739707 0.008545479088950104 0.01807340325016392)
(0.02575538469180861 0.002641366576588625 -5.590121664509523)
(-0.002345323977721177 0.00496996797259317 0.001342841377071036)
(0.005156364782491731 2.38815500989125e-05 0.008255990764380635)
(0.001257661014004432 -0.005133127406687153 -0.002743639543058694)
(0.03792951704764076 0.04675920839091834 -0.000290311301314343)
(-0.06105963372689041 -0.8600011426818985 0.1766767887724587)
(-2.635386878110606 -44.55889252738573 4.865824943827286)
(-1.646365705003175 -2.355350639456274 1.323324339750428)
(0.007817600439363415 -0.01230986837845315 -0.001971505174035367)
(-0.009533380377789688 0.003530079913838594 -0.0140943956728456)
(-0.0401880600213733 0.0008219790107632449 0.04630962969279796)
(-0.04531985834005101 0.01168952436977083 0.03490038020617528)
(-0.06129455884775606 -0.02032901358641638 0.07255592006473975)
(-0.00278851142412484 -0.001464684493359895 -0.04038660449605552)
(0.002584709658066058 -0.005426727851368182 -0.01048287017067645)
(-0.02014346216213679 0.03608813560437791 -5.986081065608572)
(0.2221480357956682 -0.8543223276410162 -0.8704532102983454)
(-0.01918323250379118 0.03699857904460228 -0.03270512181616476)
(-0.1153581418049318 0.03011426357118118 0.01715641850535768)
(0.1074174134080407 0.009576393756318725 0.0288880603209857)
(-0.070428515847172 0.160944590088341 -0.09139388100177702)
(0.01530651512913746 0.002934304744807344 0.007257214433791299)
(-0.5523532310560693 -3.548119233122106 -0.8385783791190233)
(0.7276936554902299 -2.813746143681271 -0.3141938399799911)
(0.004223235817511706 -0.001859149727601265 -0.002249950141926992)
(-0.01115210678825078 -0.0007995883054078889 -0.01333601450084334)
(-0.01626548706638093 0.003132590977838504 0.003547176669644633)
(0.02928175207603884 -0.008183661841437375 0.02909813882814057)
(0.01196848058191074 0.00222195017196611 -0.00942720095977335)
(-0.01435036731451308 -0.003965577315678672 0.04211679438532627)
(0.8492166950654689 0.3155521982848654 -28.10901871140778)
(0.2578415446803412 -0.06464772030756065 0.06510392063291617)
(0.07603651891561924 0.02693645606927949 0.113775471180175)
(0.0422285588174601 -0.002502720644722876 -0.01273032300580209)
(0.001898866361995821 -0.01715372595395225 -0.01077193803828674)
(0.02051030450935147 -0.04392264256200297 -0.03894214236244907)
(0.283058559771651 5.499453411003333 0.446795577284224)
(-0.02529015718369772 -0.028180534702632 -0.01301573276549892)
(0.01202269287421115 -0.002679363607357591 -0.002196530367844294)
(0.003633380696419891 -0.002908298068191343 0.0001787460556544338)
(0.002801977482227303 -0.00239070223122628 -0.002244097208101441)
(0.001307153245519565 -0.001174953805590694 -0.0008319879967486512)
(-0.0100267590201416 -0.004071332404821966 -4.197154706073441)
(-1.356116230565269 -1.581406089345936 0.930677364688173)
(-0.00604023200476372 -0.04099265692546963 0.01773798574090137)
(0.0776183387136718 0.1904149400078302 -0.3532033453593215)
(0.1650439872584172 -0.1011833276944271 -0.2694457078849463)
(-0.04521302687879912 0.1621502914237642 -0.1059480300093542)
(0.04743028298063529 -0.07027521084725701 0.07890846268007694)
(-0.02547894673497741 0.00508303757619821 -13.15711527496099)
(-0.01791521239283294 0.02467811186014834 0.0365882495684029)
(-0.9480739717449345 -4.503178559071578 -6.727342112555382)
(0.009971258148574278 0.04263808899453565 0.00966487471102451)
(0.4565024620367609 1.327120837573827 -0.4777713181028593)
(-0.4978659538023464 0.7444036657898261 -0.5749026449924056)
(0.002450863661166639 -0.004357738907101626 0.0004352179586398194)
(0.0006805088885909489 -0.005382206821274342 0.006174777709952082)
(0.01585461584253717 -0.02889199362876262 0.02528037094105499)
(-3.310602477673551 -36.97593343080838 3.58000144943842)
(-1.898659504843695 -31.58008947344163 3.173644209665248)
(0.1055934869005102 0.9671913195130342 -2.104341107028599)
(0.005969956910240375 0.008117666910773851 -0.0009303562737898439)
(-0.2675292725224462 -2.060939190803286 0.7993274249749778)
(-0.01326861660192723 0.01160694854797015 -0.002590578645029939)
(-4.855532493160405 -23.70839333599418 -7.248530892143194)
(-0.2452048627929763 -0.3824444680117255 0.1209210010505829)
(-0.2241189494783829 -0.0438512804554233 -0.1186215582568724)
(0.008367002129913925 0.04852614819396324 -0.02709072668633271)
(-2.511627962884352 -10.48395333929107 -3.412987815490832)
(0.1919580049815701 -0.144242394310345 0.1521323374869501)
(0.006785665184376215 -0.001579376081281915 0.0004485279895435921)
(-0.3532912651367077 -0.9369993327946803 0.4103716577464655)
(-0.2831146684127939 34.97967324066502 9.24415378591948)
(1.99966311631252 2.751249431084713 -2.973565982496174)
(0.0202276297899221 0.007379099099074624 0.02668423253274804)
(-0.8467152782745122 -0.3678155982033973 -0.1973446702791665)
(1.035908045602645 43.99490930578906 2.111610338379358)
(-0.4329252142942286 7.57596250231283 -1.428377108507829)
(-0.004263831970856972 0.01228692263721419 -0.004171067468352294)
(0.00953294323387828 0.001052813507267144 -0.003944315994129753)
(0.004018467305153289 -0.02432209434918937 0.002802559587490632)
(0.1658193454714303 8.404998455138379 -0.2225273096936068)
(0.004468354674991935 0.01388520704100676 -0.008579083438386523)
(-0.07186430336738812 -0.07536593192147246 -0.03580369918656134)
(0.01602476071132316 0.0007004686970318776 -0.003823339044198248)
(-0.03211497434382234 -0.105405837148618 0.01249319372622719)
(0.05079899230675468 -0.3800728936145336 -0.2988754242668311)
(0.001890458375386533 0.01236757526286484 0.0005373660473087516)
(-0.0832625309724903 0.007443205572493727 0.1875312046837633)
(2.315495540602162 -64.49026887597411 -3.807571757597701)
(1.163442646157954 1.569579774089962 0.5668691162627931)
(-1.78357977379105 -3.177587431788695 -0.2887959099985217)
(0.01388810249358665 -0.0001282365020392161 -0.0007132386731097326)
(0.5145074038440481 -0.3722447733756528 0.1193539989028292)
(-0.001776781263836407 0.0001684910231253645 0.001054491881381935)
(0.6644331728680968 0.5683131337907876 0.3093605195644374)
(0.01681284437272486 -0.03039766832980166 0.02592733397488216)
(-1.172028431438481 0.1108502481501409 -0.145735380319898)
(-0.1017872784107154 0.191214192553999 -5.663729593534709)
(0.203255777351641 7.440235339479684 7.812167403036051)
(-0.1638806097860853 -0.08065450855794791 -0.01839893870337804)
(-0.01098015588746762 -0.007706311549806631 0.01302764786620258)
(0.04484490121435299 3.481323229610449 -0.4560534728151114)
(0.8756678929430506 0.4797343116226017 0.6183240584406541)
(-1.10652459773216 -2.085512341632287 1.163725463768453)
(-0.03986968637519928 0.342861783239412 0.2691802812082685)
(-0.05769032895016296 -35.27903846198338 -0.7139167994102555)
(4.581531008435745 62.31766831624825 1.507775874576824)
(-0.009700883217260113 0.06709198012545166 -5.952882876727841)
(0.1158815360207795 -0.02487309020201905 -0.1547596473200353)
(0.04246935337088856 -0.2459662271317502 -0.008264851265650353)
(-0.1001399145632539 0.0680125060867387 -0.05101355330145276)
(-1.49780203913288 1.373494579651795 -4.479347346980128)
(-0.1447960807610204 0.01412116942216057 0.1360153805608478)
(0.00426826164968943 -0.004809298154623977 -0.007368386572976526)
(0.004498062464702603 -0.005119124781152636 0.02279643237401648)
(0.0586684886532465 0.02426773869322705 -0.003159391851851717)
(0.001816091880396229 0.001463507356385121 -0.0002735659456751556)
(-1.127539062103468 40.67148292619998 -0.8570116537636475)
(-2.707577904288542 4.84885988865833 1.249608172029657)
(-0.01676627338506429 0.0004025664043057044 0.001092146552410382)
(0.1100256789074606 0.0555290522609624 -0.06639345151949669)
(-1.768459144217328 -8.722228060502303 -0.3670574292418177)
(-3.455814338679955 10.91332161817019 -7.734524829511866)
(6.024099746970134 14.68028087558458 -0.9523023875190247)
(2.440079787970147 -36.36315184237122 -3.642328931115279)
(0.5804463373880278 1.098287818356864 0.2505871897272142)
(-1.450959488657423 0.1884361193583635 -0.2322025174583328)
(0.3028398782630914 32.54388606638447 4.422469543640458)
(2.213459194133801 2.307758634556927 0.2110127000890689)
(-0.07086285647607823 0.01343179374982562 -0.0856939287206544)
(0.6955207899165202 -8.350316483250298 -1.497709269298537)
(-0.004292565512704211 -0.001911032018505468 0.006307346998133245)
(1.107678494504311 0.6961957395794552 -0.5214967737077624)
(0.06639667734828883 0.1596485055487177 0.1357183640255296)
(3.339592377085445 0.2195211026885996 1.448365980208838)
(0.2437150792578195 -0.1015167835687154 -0.1466521819230708)
(-0.1428662197487807 0.1094157954521182 -0.01786529825891317)
(0.02703519005626518 0.02221780995857946 -0.01471656281539378)
(-3.478026578079494 -1.27033374215127 -2.929982824464653)
(0.5898771207492298 -2.661411651107757 1.175892594877097)
(0.472072277990827 -7.384954361157394 -1.02716313119574)
(0.3747253321528558 13.19037560040385 -9.888881226318034)
(-0.1047484664009683 -0.000591667603008203 -0.05111707272771587)
(3.425699764317784 0.2041214913316982 -7.777819150813635)
(-0.05718668035359775 -0.1985094891389572 -0.09522575193494169)
(0.680913846486195 -6.18961912501579 3.086276209947901)
(0.01033728946722631 0.01701769429792752 -0.01652818277202707)
(-0.005420132977329739 -0.004781101443226223 -0.003298951948586775)
(-0.03064000452360469 0.02053839451953472 0.07609925132160036)
(0.3769956262737299 -3.237646661708531 -0.5298517021877795)
(1.224852986436347 -13.43617018190623 0.6430912675173894)
(-0.05055969970446852 -0.06050855757297038 -0.02826327459337924)
(1.298701584284147 0.1512773065558149 -0.3072952729355297)
(0.7360181135445334 -2.20244494900122 -5.162864652533684)
(-0.4702539401353617 -5.106216355780459 11.53871315748108)
(0.1379813682104247 -0.1898666508107673 0.01756833673903768)
(0.3268860201247102 0.0257110502808592 0.0165074308020841)
(-1.441709207298847 -2.666996215233536 1.346481007632868)
(0.06233048023037804 0.1339281257734429 0.04495675867303914)
(-0.0002240304609688649 0.005493038457462137 -0.005376008704519476)
(-0.007142581191156711 -0.1005435247313861 -0.1128111436952157)
(-0.3300559709846767 -0.5137311925583647 -2.569125741279162)
(-0.02252724188191282 -0.02217232480444463 -0.02812173579081065)
(-1.331034245734338 1.06112541092744 -0.1620682558487654)
(1.642029968483203 6.289248985918814 -2.056649382182866)
(-0.1949531374212696 -0.08567033916421937 -0.08935640783612912)
(0.005564799108459442 0.00202087640780332 0.0007358200524507905)
(-0.000518999412909368 -0.001902170150558991 0.001425730683795436)
(9.91120008249257 6.326144769928287 -6.861465844319639)
(-2.497664368379856 0.696936866797862 -5.605001655068406)
(0.6119616063206519 0.3093629011262988 -1.891160972558328)
(-0.9249329252988777 -0.2604066726784389 0.9039043748419754)
(3.541806495550122 4.740457104369206 4.93498011342146)
(5.361260822534655 4.961238640144988 0.5493844941431165)
(-4.600777169694648 -0.6388173435779585 -0.0743471478472042)
(0.005314350859476109 0.03887202382075949 -0.03566366737466048)
(-1.16376887370847 0.595388360696841 -0.1014905275478223)
(-0.177278051887627 2.491141203090175 -0.9136090281232179)
(-0.01324226289159511 0.008246564799557439 0.05773198433335609)
(5.342607684739373 62.35818996802681 4.480385633634648)
(0.01297852352320461 -0.01189082814089197 -0.03235106416475248)
(0.000384612817975169 -0.002262931684769482 -0.02187181342071321)
(-0.02812910558902922 0.01632913800143877 0.04242498370211603)
(0.003314858800869336 -0.02505751982808768 0.003170730287817995)
(1.260840448087569 38.5612673825169 -0.4206302127593305)
(0.4509414422749622 -2.795374676472933 2.813882663744543)
(0.06604874603316348 -0.02593476158874614 -0.007532873431161297)
(-0.01704633068148751 0.0005432967481883034 0.002259973902208977)
(0.03371727688316077 0.01092247283706636 0.006709107663970596)
(3.625332527594228e-05 -0.001174000884913255 -0.001908242062102978)
(-0.0007081921353230318 -0.0001249174288215637 0.001736341392242406)
(-2.111746194559264 0.4276642688291838 -1.906643240497954)
(-0.0005308232297506091 -8.223719337693588e-05 0.0001831772203016957)
(0.8070276336233565 0.1111581324555273 0.4074207515609835)
(2.724191186404838 51.63903310354006 0.1848190458175529)
(0.4022465922352663 0.4113471822152624 0.304490826455992)
(-0.005911761698065704 0.01739888882476109 0.06307715667241544)
(1.647274518829311 0.6132217726154938 -4.009007326512662)
(-2.323317347736818 -2.753370588786875 -4.588116697477837)
(0.237777801952595 0.2602908114419466 0.09815830082822749)
(2.79530848124964 2.562367588793105 -5.576539577591653)
(-0.1289474046225838 -0.01882238463316241 0.03432275816878556)
(-1.320433994956783 0.5551873364007697 0.5314894655878325)
(1.190732672292288 -1.067286189082945 -0.2096216320796341)
(-0.0696943323081136 -0.05527141476117274 0.002942374453159599)
(0.07151764391923388 0.04855778257696967 0.02087399949277917)
(-0.1333664271082098 0.03430926157700438 -0.04397464522547641)
(0.8291506064135834 -49.13695834042273 6.040779008654177)
(-0.01451927427245253 0.005118333980200658 0.005383208398161133)
(0.2741707649717117 -45.00173908232816 0.7564703415371324)
(0.1234370043399128 2.560284079824136 1.889888750280055)
(0.00233333492918111 0.005013123687940605 -0.002080176441195692)
(-0.04536143549649544 0.1290459507923796 -0.05451859204599568)
(0.0614053553205368 -0.005152547969085614 0.003824272871753423)
(-0.9497782971357461 1.177911601652523 -0.06638422641789105)
(0.03005320268259127 0.005579198485092283 0.01194333985560362)
(6.698018198451812 18.50097853921588 6.020193970202921)
(-3.396061614901285 -4.33348833325703 -1.511982408362305)
(-2.364750414049842 -7.727814786212797 -4.114217529926148)
(-0.02236409874470238 0.01017643424269669 -0.03203551276032218)
(0.3091702028976594 -0.6544629333971659 -0.08273452660682143)
(0.01911208321251283 -0.01490618899314992 0.03362879024893128)
(-0.4709573476739448 0.1135851263510983 0.0775764194041859)
(0.0225349431603264 0.002300500033390686 0.01910341056999105)
(-0.1201846221049287 -0.4321618636081891 0.734627222028011)
(0.4078894420152283 0.1108715716188146 -4.848964711768139)
(0.06081408262096238 6.158939285334117 0.2722054171396843)
(-0.0652152895324966 0.06910158503175842 -0.01398412679910774)
(-0.6253361580181012 -5.409694125107271 8.642823206752855)
(0.02447661490685497 -0.0387928815787732 -0.03301708706976385)
(-2.049741940991983 30.90493691077975 1.077059524052629)
(0.5900280807128442 -0.5064399102565963 1.258538978934155)
(0.6742430203537588 0.1938147453289874 0.5142455929029031)
(-0.006889601486817651 0.003210808196049083 -0.003360156309485333)
(-5.643900524663136 11.19177049617207 2.432211718107405)
(-1.193623182507335 0.5113451842844372 -0.06980070820720793)
(-0.0007651476222386953 -0.01549768567345986 0.04559830448547035)
(-1.710887109650038 -0.09693363017338624 -0.06271968635060643)
(-0.0003282712933382337 -0.005275120454741629 -0.006684185498220835)
(5.423614407792435 -8.016359911715828 -1.712674653423688)
(-0.01172492728201324 0.004914789683124907 0.03095419602298055)
(0.1016738850389367 0.04507388474230585 -0.03487850995874869)
(-1.196971266322532 0.2403514870422295 -0.1762400693366727)
(-0.004036159811680974 0.0002031993198686693 0.0004075532050353111)
(0.001034436257205102 -0.003508453258109697 -0.001680031247894091)
(0.05457723572572062 0.03674490866402939 0.009807738864820559)
(0.0977547609087599 -0.06317972584329865 0.1553094343509946)
(0.1289711131096123 -0.01166513633672919 -0.01534040109252122)
(-0.0001297916921326305 0.001218669595845542 -0.003797330525646448)
(-0.02019122281496388 0.1025144888321749 -0.1015896802695333)
(0.01106843811921431 0.009269382689882972 0.0004678940784417973)
(0.02708292630151097 0.0009604393738939371 -0.01357917604034752)
(0.003865097002535451 0.002569264923544102 -0.004299160000416782)
(0.9533478607779253 10.4404392541444 -0.7122478325159736)
(-0.01181234643063242 0.0008279065381478958 0.002486891828747531)
(-0.001434321756782852 -0.004574441053471177 0.001388675495206143)
(0.001839497388005795 0.001345208349619374 0.0005771044116640787)
(-0.8579388810278321 -0.647462119254455 1.693135152831857)
(0.1479010706636253 0.6402122678172588 0.02246461694722249)
(0.0005758950307067365 -0.002262214537589131 -0.009822495849044516)
(-0.01067508715640528 0.06892561409531975 -6.596299671984333)
(0.004222012884574146 0.007313822578925464 -0.0006400180159548317)
(4.696752278111914 -7.514711078181626 3.47371540874839)
(-6.933306871850031 -5.823792085784742 5.194619139932437)
(-0.0001269810154319388 0.0004262973561643178 0.001150647016736902)
(-0.3460614367866006 -4.034248771710375 -6.175696393119117)
(-3.33522778903982 -47.1275897191309 -0.2314722697890976)
(-0.05312125335718321 -0.03267443598599327 0.01143512217773319)
(0.0005426617059055767 -0.0003201807283988858 0.0005373104324832641)
(-0.0003882938778564387 0.0003539996538634459 -0.001189601264851556)
(-0.8258242236912463 0.2030501848112787 -0.3696850917543019)
(-0.09805064342180057 0.1530917223030143 -5.609399953387668)
(-1.549347548737888 0.09777402501790272 -0.1199788940274431)
(-3.391585146489374 -61.82328972920429 -7.991151937398969)
(-0.1463677138881828 0.04746498249626636 -0.05820390500914525)
(-0.01605333944394706 -0.1135596820504544 -0.01905491476456695)
(6.269681472960296 -17.88170991798735 -1.125982638853001)
(-4.289272485543739 -2.62333006981329 -8.300869441600558)
(-2.15672512558573 -54.61367211128279 0.2215845202024254)
(1.771858256330517 -2.950431798272002 0.4298327131492589)
(0.6263739706740097 -0.2438931793745932 -3.173648107210583)
(-1.365495277879803 -60.8735561025271 -8.449905557929267)
(1.554914174885509 0.009830615809390819 0.9034903440813298)
(8.155627749084445 -49.04175411547311 8.915715039641348)
(2.393104861015518 -6.196407479025108 -0.4644770042506999)
(-0.1996072307728082 -0.04086287831363561 0.03574808570667228)
(-0.1330791967109221 -0.5226763726849137 0.2328089507650947)
(-0.01932044711142648 -0.03091151781806937 0.0415386885611586)
(-0.2574376690137413 -0.3843458609497631 -0.3426588452051127)
(-0.642835981552544 3.205783509111994 5.80473112655651)
(0.09277550640435349 0.0186955855251192 -0.04726825738487775)
(-7.782085144202195 -32.95382127822766 15.94698540651685)
(-0.1005321851948133 2.516416391750456 -1.603456259845899)
(0.06842632048368684 -0.06100569878891954 0.04549545640941832)
(-0.009684978146894986 -0.0006671582577815873 -0.00191105905872072)
(2.863879567799209 1.002628456415345 -0.5039368664550804)
(8.867378198619555 93.02077100314916 -2.866951586374797)
(-0.2080498433333019 -0.09970290842346896 0.002643613623580354)
(0.002376298475431731 -0.005140324680401328 -0.004394781172898283)
(-0.5018274646061435 -0.09524884834791461 0.08045685068195574)
(-0.1786935833852148 0.4506239582840282 -0.2469850280475671)
(-0.01527092377118065 -0.01357823148980245 0.002720420457693366)
(0.01064659464703962 -0.007148245427108521 0.01226136796766373)
(-0.003574151865695263 0.004507771441653909 0.007781366515185539)
(3.440987010939744 78.85438329897201 -1.460976234178441)
(4.386776802598372 -2.361543148391259 -1.219309560029092)
(-0.001586599634914391 0.03151541284424184 0.04440379081552941)
(-0.805019561046282 -1.708221299139889 -0.09777277682829885)
(2.880728555250998 14.92705614504985 3.14700497373279)
(-0.003447343608573484 -0.0004888712493555315 0.0003293174411586148)
(-12.86250821503597 -22.75977276828645 0.4950498094951254)
(-2.513856640943545 -2.794573990616254 0.1793556085717226)
(1.732062210951665 1.872399799118996 -3.172238322757482)
(0.001768478727261602 0.0008584748010381109 -0.0007006686249632482)
(0.3130660980464903 0.1658524892006187 -0.392844440044229)
(-1.472282330324394 -2.707477753671297 1.87404325695982)
(0.3439557102251433 0.5290924223899314 -0.5974949299543283)
(0.0004894052348793387 0.0005484705975218436 -0.004653388715693966)
(3.173312550012022 -7.577726205742564 6.874168224657538)
(8.55769618484387e-05 -0.0005271785325746572 -0.0004884201727948854)
(7.687616017151803 3.947012295634602 6.529363183687344)
(-4.782976359413169 4.00073821464378 -43.43432392914841)
(0.01573753347572608 -0.002253294584033975 0.01898216243119677)
(0.2861299511262534 -0.5755100332838398 -0.3223101929118338)
(0.2373779022457242 1.032509202342518 0.1365045642754855)
(1.578260964052564 11.84053832516077 6.763481618309933)
(1.169709986821891 -1.659705763123088 -0.8740371015710883)
(0.0009273036204703801 -0.0002408091577210055 -0.0009902553882046817)
(0.001159285167429186 0.0005410831851516877 -0.0002248338889960436)
(0.001740414967230472 -0.01732666336016708 -0.02300451390855622)
(0.0361887808475166 0.3320791453313663 -0.2353133153256334)
(-0.4083297986066155 -0.7303154622498068 -0.005776344440958269)
(0.03016425113430601 0.007497625167893946 -0.08289274107115885)
(-0.0003349489562018966 -0.01191424732300641 -0.0209226038113087)
(0.001983714622244531 0.0031170927581378 -0.01290571371420196)
(-0.05126841092826493 0.06881554470316721 -0.04810065565745232)
(-0.001481366035278989 -0.0003860762338064525 -0.0009952461270139046)
(0.1119158244655373 1.977478017260966 0.5704219671115089)
(-0.009035296390968998 0.03755418018204415 0.01947953833616882)
(-0.495088215627642 2.180555406637896 -0.9277428982734877)
(0.1302150126450793 -4.95023167139647 1.067254300295006)
(-0.005664093541810561 -0.01846427005419611 -5.980840822392996)
(-0.282730625753714 -0.931177601940305 0.009327599747718809)
(-3.115262987094037 64.43074949264853 10.18804224754397)